   40
step    0
Cs  -2.948  -3.199  -3.878
Cs  2.613  4.049  2.640
Cs  2.800  2.772  -3.180
Cs  -3.976  -3.331  2.667
Cs  2.435  -2.272  3.704
Cs  -2.836  3.821  -2.841
Cs  -3.743  3.823  2.286
Cs  2.357  -3.503  -3.845
Pb  5.794  4.443  -6.207
Pb  -0.795  -6.134  5.571
Pb  -6.549  -0.048  5.534
Pb  5.468  -0.186  -0.953
Pb  -0.010  6.220  -0.503
Pb  -0.725  1.056  5.778
Pb  5.777  -5.473  -0.515
I  -3.915  -5.524  5.241
I  3.054  4.826  -6.284
I  5.355  -3.112  5.543
I  -5.875  2.416  -4.193
I  -6.345  -5.758  -4.148
I  5.622  5.857  2.265
I  -3.290  -6.088  -0.091
I  3.085  5.829  -1.596
I  -0.185  -3.293  -6.584
I  -2.592  3.734  -6.520
I  5.370  -1.271  -3.677
I  -5.954  0.510  2.539
I  5.214  -2.846  0.685
I  -6.593  2.769  -0.677
I  -3.300  -0.842  5.691
I  2.548  0.980  5.641
I  0.644  -5.240  2.275
I  -0.369  5.883  -4.027
I  -3.199  -0.605  -1.192
I  2.348  -0.232  0.126
I  0.156  -2.846  -1.381
I  -0.641  3.357  0.010
I  -0.579  0.801  -3.803
I  -1.126  -0.825  2.462
Zn  -1.183  -1.051  0.083
   40
step    1
Cs  -2.991  -3.224  -3.837
Cs  2.623  4.024  2.605
Cs  2.794  2.774  -3.175
Cs  -3.974  -3.319  2.668
Cs  2.481  -2.280  3.725
Cs  -2.824  3.790  -2.849
Cs  -3.714  3.827  2.288
Cs  2.332  -3.479  -3.878
Pb  5.788  4.441  -6.208
Pb  -0.803  -6.122  5.544
Pb  -6.548  -0.062  5.539
Pb  5.460  -0.199  -0.956
Pb  -0.008  6.217  -0.514
Pb  -0.757  1.071  5.805
Pb  5.788  -5.478  -0.492
I  -3.938  -5.539  5.231
I  3.055  4.817  -6.306
I  5.361  -3.111  5.523
I  -5.856  2.386  -4.158
I  -6.310  -5.733  -4.157
I  5.611  5.883  2.273
I  -3.268  -6.077  -0.094
I  3.071  5.826  -1.597
I  -0.164  -3.257  -6.619
I  -2.590  3.735  -6.513
I  5.391  -1.281  -3.659
I  -5.945  0.508  2.512
I  5.217  -2.812  0.688
I  -6.559  2.777  -0.669
I  -3.296  -0.850  5.686
I  2.542  0.988  5.639
I  0.618  -5.262  2.302
I  -0.381  5.904  -4.031
I  -3.234  -0.573  -1.156
I  2.358  -0.289  0.129
I  0.134  -2.840  -1.395
I  -0.655  3.359  0.000
I  -0.564  0.780  -3.793
I  -1.125  -0.798  2.461
Zn  -1.181  -1.041  0.072
   40
step    2
Cs  -3.035  -3.249  -3.797
Cs  2.633  3.996  2.568
Cs  2.788  2.772  -3.170
Cs  -3.973  -3.303  2.666
Cs  2.527  -2.286  3.741
Cs  -2.817  3.756  -2.855
Cs  -3.687  3.828  2.290
Cs  2.311  -3.456  -3.914
Pb  5.792  4.440  -6.208
Pb  -0.813  -6.111  5.515
Pb  -6.546  -0.076  5.543
Pb  5.451  -0.211  -0.956
Pb  -0.006  6.216  -0.525
Pb  -0.791  1.087  5.832
Pb  5.799  -5.486  -0.472
I  -3.958  -5.555  5.223
I  3.045  4.811  -6.327
I  5.368  -3.106  5.502
I  -5.841  2.356  -4.129
I  -6.275  -5.709  -4.166
I  5.601  5.910  2.282
I  -3.248  -6.063  -0.099
I  3.055  5.826  -1.596
I  -0.143  -3.219  -6.651
I  -2.585  3.728  -6.508
I  5.412  -1.294  -3.645
I  -5.936  0.507  2.489
I  5.220  -2.783  0.695
I  -6.525  2.789  -0.658
I  -3.295  -0.858  5.682
I  2.538  0.994  5.637
I  0.591  -5.285  2.329
I  -0.389  5.929  -4.034
I  -3.277  -0.538  -1.123
I  2.371  -0.342  0.132
I  0.107  -2.836  -1.406
I  -0.665  3.358  -0.007
I  -0.549  0.758  -3.783
I  -1.123  -0.769  2.467
Zn  -1.166  -1.039  0.050
   40
step    3
Cs  -3.079  -3.275  -3.757
Cs  2.640  3.964  2.528
Cs  2.781  2.765  -3.165
Cs  -3.973  -3.284  2.662
Cs  2.571  -2.290  3.752
Cs  -2.813  3.720  -2.861
Cs  -3.660  3.827  2.294
Cs  2.295  -3.434  -3.951
Pb  5.804  4.440  -6.207
Pb  -0.825  -6.100  5.484
Pb  -6.544  -0.090  5.547
Pb  5.441  -0.220  -0.952
Pb  -0.005  6.219  -0.536
Pb  -0.826  1.104  5.859
Pb  5.811  -5.494  -0.452
I  -3.973  -5.571  5.217
I  3.024  4.808  -6.347
I  5.378  -3.100  5.481
I  -5.829  2.325  -4.108
I  -6.240  -5.688  -4.174
I  5.591  5.939  2.294
I  -3.228  -6.045  -0.105
I  3.039  5.828  -1.593
I  -0.124  -3.179  -6.683
I  -2.579  3.714  -6.506
I  5.432  -1.310  -3.635
I  -5.928  0.507  2.470
I  5.223  -2.759  0.706
I  -6.490  2.805  -0.644
I  -3.297  -0.866  5.680
I  2.534  0.999  5.633
I  0.566  -5.308  2.357
I  -0.394  5.956  -4.035
I  -3.326  -0.500  -1.092
I  2.388  -0.389  0.133
I  0.077  -2.833  -1.414
I  -0.672  3.354  -0.011
I  -0.533  0.736  -3.773
I  -1.119  -0.739  2.479
Zn  -1.143  -1.044  0.022
   40
step    4
Cs  -3.124  -3.302  -3.718
Cs  2.647  3.930  2.487
Cs  2.775  2.753  -3.161
Cs  -3.973  -3.262  2.656
Cs  2.613  -2.292  3.758
Cs  -2.812  3.682  -2.866
Cs  -3.636  3.824  2.298
Cs  2.283  -3.413  -3.991
Pb  5.824  4.440  -6.203
Pb  -0.840  -6.090  5.452
Pb  -6.540  -0.104  5.550
Pb  5.430  -0.227  -0.944
Pb  -0.004  6.224  -0.548
Pb  -0.862  1.122  5.885
Pb  5.824  -5.503  -0.434
I  -3.983  -5.588  5.211
I  2.995  4.809  -6.367
I  5.392  -3.093  5.461
I  -5.822  2.295  -4.095
I  -6.206  -5.670  -4.181
I  5.583  5.969  2.307
I  -3.211  -6.025  -0.113
I  3.023  5.834  -1.589
I  -0.106  -3.139  -6.712
I  -2.571  3.695  -6.506
I  5.450  -1.330  -3.629
I  -5.921  0.507  2.456
I  5.227  -2.744  0.720
I  -6.456  2.825  -0.627
I  -3.302  -0.874  5.679
I  2.531  1.002  5.629
I  0.541  -5.331  2.385
I  -0.397  5.985  -4.035
I  -3.379  -0.461  -1.062
I  2.407  -0.431  0.133
I  0.042  -2.833  -1.420
I  -0.676  3.346  -0.014
I  -0.516  0.714  -3.763
I  -1.113  -0.708  2.493
Zn  -1.115  -1.052  -0.010
   40
step    5
Cs  -3.169  -3.328  -3.680
Cs  2.653  3.892  2.444
Cs  2.768  2.738  -3.157
Cs  -3.973  -3.237  2.647
Cs  2.652  -2.292  3.757
Cs  -2.815  3.642  -2.869
Cs  -3.613  3.819  2.302
Cs  2.275  -3.393  -4.031
Pb  5.850  4.442  -6.197
Pb  -0.857  -6.079  5.419
Pb  -6.535  -0.117  5.553
Pb  5.418  -0.229  -0.933
Pb  -0.003  6.232  -0.558
Pb  -0.899  1.139  5.910
Pb  5.837  -5.512  -0.417
I  -3.990  -5.604  5.207
I  2.961  4.813  -6.386
I  5.409  -3.084  5.443
I  -5.819  2.266  -4.092
I  -6.173  -5.656  -4.188
I  5.576  6.000  2.323
I  -3.196  -6.002  -0.122
I  3.007  5.843  -1.583
I  -0.089  -3.101  -6.739
I  -2.562  3.670  -6.508
I  5.468  -1.354  -3.628
I  -5.914  0.507  2.447
I  5.232  -2.736  0.738
I  -6.422  2.848  -0.608
I  -3.309  -0.882  5.680
I  2.530  1.004  5.625
I  0.517  -5.354  2.414
I  -0.397  6.017  -4.034
I  -3.432  -0.422  -1.034
I  2.429  -0.467  0.132
I  0.005  -2.836  -1.425
I  -0.676  3.335  -0.015
I  -0.498  0.692  -3.752
I  -1.106  -0.677  2.507
Zn  -1.088  -1.060  -0.039
   40
step    6
Cs  -3.213  -3.355  -3.643
Cs  2.657  3.852  2.400
Cs  2.760  2.719  -3.154
Cs  -3.974  -3.209  2.637
Cs  2.687  -2.289  3.750
Cs  -2.820  3.602  -2.871
Cs  -3.593  3.811  2.306
Cs  2.271  -3.374  -4.071
Pb  5.880  4.445  -6.188
Pb  -0.876  -6.067  5.385
Pb  -6.529  -0.130  5.554
Pb  5.406  -0.228  -0.919
Pb  -0.004  6.241  -0.568
Pb  -0.936  1.156  5.933
Pb  5.850  -5.521  -0.402
I  -3.991  -5.620  5.203
I  2.924  4.819  -6.405
I  5.431  -3.076  5.426
I  -5.821  2.238  -4.098
I  -6.140  -5.646  -4.193
I  5.569  6.033  2.342
I  -3.184  -5.977  -0.132
I  2.993  5.855  -1.576
I  -0.075  -3.064  -6.765
I  -2.553  3.642  -6.512
I  5.486  -1.381  -3.631
I  -5.908  0.507  2.444
I  5.239  -2.737  0.759
I  -6.389  2.875  -0.586
I  -3.320  -0.890  5.682
I  2.529  1.004  5.620
I  0.495  -5.377  2.441
I  -0.396  6.050  -4.032
I  -3.485  -0.382  -1.006
I  2.451  -0.498  0.129
I  -0.033  -2.844  -1.431
I  -0.673  3.322  -0.014
I  -0.480  0.670  -3.739
I  -1.098  -0.645  2.518
Zn  -1.066  -1.063  -0.061
   40
step    7
Cs  -3.256  -3.381  -3.607
Cs  2.661  3.809  2.355
Cs  2.753  2.697  -3.152
Cs  -3.974  -3.180  2.625
Cs  2.718  -2.284  3.736
Cs  -2.827  3.560  -2.872
Cs  -3.575  3.802  2.310
Cs  2.271  -3.356  -4.111
Pb  5.913  4.449  -6.176
Pb  -0.895  -6.053  5.353
Pb  -6.522  -0.141  5.555
Pb  5.394  -0.222  -0.903
Pb  -0.006  6.251  -0.578
Pb  -0.971  1.170  5.953
Pb  5.864  -5.529  -0.389
I  -3.989  -5.636  5.199
I  2.886  4.828  -6.424
I  5.457  -3.069  5.411
I  -5.827  2.211  -4.113
I  -6.109  -5.641  -4.198
I  5.562  6.065  2.363
I  -3.174  -5.949  -0.143
I  2.979  5.870  -1.569
I  -0.063  -3.031  -6.789
I  -2.544  3.613  -6.517
I  5.502  -1.411  -3.636
I  -5.903  0.507  2.446
I  5.248  -2.746  0.783
I  -6.357  2.904  -0.562
I  -3.334  -0.899  5.687
I  2.529  1.003  5.614
I  0.475  -5.400  2.468
I  -0.393  6.084  -4.029
I  -3.535  -0.344  -0.978
I  2.474  -0.522  0.126
I  -0.071  -2.857  -1.438
I  -0.666  3.308  -0.012
I  -0.461  0.647  -3.725
I  -1.089  -0.613  2.525
Zn  -1.054  -1.059  -0.073
   40
step    8
Cs  -3.299  -3.407  -3.571
Cs  2.664  3.765  2.309
Cs  2.746  2.673  -3.150
Cs  -3.974  -3.148  2.612
Cs  2.745  -2.277  3.716
Cs  -2.836  3.518  -2.872
Cs  -3.560  3.790  2.313
Cs  2.276  -3.339  -4.151
Pb  5.946  4.455  -6.162
Pb  -0.915  -6.038  5.321
Pb  -6.514  -0.150  5.555
Pb  5.383  -0.213  -0.885
Pb  -0.010  6.263  -0.587
Pb  -1.006  1.182  5.972
Pb  5.878  -5.537  -0.377
I  -3.983  -5.651  5.194
I  2.849  4.839  -6.442
I  5.488  -3.063  5.398
I  -5.838  2.186  -4.136
I  -6.080  -5.641  -4.202
I  5.554  6.099  2.387
I  -3.167  -5.921  -0.155
I  2.967  5.886  -1.561
I  -0.053  -3.002  -6.813
I  -2.538  3.583  -6.524
I  5.518  -1.444  -3.642
I  -5.899  0.507  2.453
I  5.259  -2.762  0.809
I  -6.326  2.936  -0.536
I  -3.351  -0.908  5.694
I  2.530  1.001  5.608
I  0.457  -5.423  2.494
I  -0.391  6.119  -4.025
I  -3.582  -0.308  -0.949
I  2.496  -0.541  0.122
I  -0.109  -2.876  -1.447
I  -0.655  3.293  -0.008
I  -0.442  0.623  -3.710
I  -1.078  -0.581  2.526
Zn  -1.054  -1.046  -0.073
   40
step    9
Cs  -3.340  -3.431  -3.537
Cs  2.666  3.718  2.263
Cs  2.739  2.647  -3.150
Cs  -3.974  -3.115  2.598
Cs  2.767  -2.266  3.691
Cs  -2.846  3.476  -2.870
Cs  -3.548  3.777  2.315
Cs  2.284  -3.323  -4.190
Pb  5.981  4.463  -6.145
Pb  -0.935  -6.022  5.290
Pb  -6.505  -0.156  5.554
Pb  5.373  -0.202  -0.865
Pb  -0.015  6.274  -0.596
Pb  -1.038  1.190  5.989
Pb  5.892  -5.545  -0.365
I  -3.973  -5.665  5.189
I  2.815  4.852  -6.460
I  5.523  -3.060  5.388
I  -5.853  2.164  -4.168
I  -6.053  -5.648  -4.206
I  5.547  6.133  2.414
I  -3.163  -5.891  -0.167
I  2.957  5.905  -1.553
I  -0.046  -2.977  -6.835
I  -2.533  3.554  -6.531
I  5.534  -1.479  -3.649
I  -5.896  0.507  2.464
I  5.273  -2.785  0.836
I  -6.296  2.969  -0.510
I  -3.371  -0.918  5.703
I  2.532  0.997  5.602
I  0.442  -5.445  2.517
I  -0.388  6.155  -4.020
I  -3.624  -0.273  -0.921
I  2.516  -0.553  0.117
I  -0.147  -2.899  -1.457
I  -0.642  3.278  -0.004
I  -0.423  0.600  -3.693
I  -1.065  -0.550  2.522
Zn  -1.065  -1.024  -0.061
   40
step   10
Cs  -3.380  -3.455  -3.503
Cs  2.669  3.671  2.217
Cs  2.733  2.620  -3.150
Cs  -3.972  -3.081  2.584
Cs  2.784  -2.254  3.660
Cs  -2.857  3.433  -2.867
Cs  -3.538  3.763  2.315
Cs  2.295  -3.308  -4.227
Pb  6.014  4.472  -6.125
Pb  -0.955  -6.004  5.262
Pb  -6.496  -0.161  5.552
Pb  5.364  -0.187  -0.844
Pb  -0.021  6.286  -0.604
Pb  -1.066  1.193  6.003
Pb  5.907  -5.553  -0.354
I  -3.962  -5.678  5.182
I  2.785  4.866  -6.477
I  5.562  -3.059  5.379
I  -5.873  2.143  -4.208
I  -6.029  -5.661  -4.209
I  5.538  6.168  2.442
I  -3.162  -5.860  -0.179
I  2.948  5.924  -1.546
I  -0.041  -2.957  -6.856
I  -2.533  3.530  -6.540
I  5.549  -1.516  -3.654
I  -5.894  0.507  2.480
I  5.289  -2.812  0.865
I  -6.268  3.005  -0.484
I  -3.394  -0.927  5.714
I  2.534  0.992  5.595
I  0.430  -5.467  2.539
I  -0.386  6.191  -4.014
I  -3.660  -0.241  -0.892
I  2.534  -0.561  0.111
I  -0.184  -2.925  -1.467
I  -0.625  3.263  0.001
I  -0.404  0.576  -3.675
I  -1.052  -0.518  2.513
Zn  -1.088  -0.995  -0.041
   40
step   11
Cs  -3.417  -3.477  -3.470
Cs  2.671  3.622  2.171
Cs  2.726  2.592  -3.151
Cs  -3.971  -3.046  2.569
Cs  2.797  -2.239  3.625
Cs  -2.869  3.390  -2.863
Cs  -3.531  3.747  2.314
Cs  2.310  -3.294  -4.262
Pb  6.047  4.482  -6.104
Pb  -0.974  -5.984  5.236
Pb  -6.487  -0.162  5.550
Pb  5.358  -0.171  -0.823
Pb  -0.029  6.298  -0.612
Pb  -1.091  1.190  6.016
Pb  5.921  -5.562  -0.343
I  -3.950  -5.690  5.173
I  2.759  4.881  -6.494
I  5.603  -3.060  5.372
I  -5.896  2.123  -4.254
I  -6.008  -5.680  -4.211
I  5.529  6.202  2.472
I  -3.165  -5.829  -0.191
I  2.942  5.945  -1.539
I  -0.039  -2.942  -6.877
I  -2.537  3.509  -6.549
I  5.563  -1.554  -3.657
I  -5.893  0.507  2.499
I  5.307  -2.842  0.893
I  -6.242  3.041  -0.458
I  -3.418  -0.936  5.727
I  2.537  0.987  5.588
I  0.421  -5.488  2.558
I  -0.385  6.227  -4.007
I  -3.691  -0.212  -0.864
I  2.548  -0.563  0.104
I  -0.222  -2.951  -1.476
I  -0.605  3.249  0.006
I  -0.385  0.552  -3.655
I  -1.038  -0.486  2.499
Zn  -1.120  -0.964  -0.017
   40
step   12
Cs  -3.451  -3.497  -3.438
Cs  2.674  3.573  2.125
Cs  2.721  2.563  -3.153
Cs  -3.968  -3.010  2.554
Cs  2.807  -2.223  3.587
Cs  -2.882  3.348  -2.858
Cs  -3.527  3.730  2.311
Cs  2.327  -3.281  -4.296
Pb  6.078  4.494  -6.081
Pb  -0.991  -5.963  5.214
Pb  -6.479  -0.161  5.548
Pb  5.354  -0.154  -0.801
Pb  -0.038  6.310  -0.621
Pb  -1.112  1.181  6.026
Pb  5.936  -5.572  -0.332
I  -3.937  -5.699  5.163
I  2.738  4.897  -6.510
I  5.647  -3.064  5.366
I  -5.922  2.106  -4.305
I  -5.989  -5.706  -4.213
I  5.519  6.236  2.502
I  -3.172  -5.798  -0.202
I  2.937  5.966  -1.533
I  -0.039  -2.931  -6.897
I  -2.546  3.494  -6.558
I  5.577  -1.591  -3.657
I  -5.893  0.508  2.522
I  5.328  -2.874  0.921
I  -6.219  3.079  -0.432
I  -3.444  -0.945  5.742
I  2.540  0.980  5.580
I  0.416  -5.508  2.573
I  -0.384  6.263  -3.999
I  -3.715  -0.185  -0.836
I  2.559  -0.561  0.096
I  -0.260  -2.976  -1.482
I  -0.583  3.235  0.011
I  -0.366  0.528  -3.636
I  -1.022  -0.454  2.482
Zn  -1.160  -0.933  0.007
   40
step   13
Cs  -3.483  -3.514  -3.407
Cs  2.678  3.523  2.080
Cs  2.715  2.535  -3.157
Cs  -3.965  -2.974  2.539
Cs  2.813  -2.206  3.546
Cs  -2.895  3.306  -2.851
Cs  -3.525  3.713  2.306
Cs  2.347  -3.270  -4.328
Pb  6.107  4.507  -6.058
Pb  -1.007  -5.941  5.195
Pb  -6.471  -0.158  5.545
Pb  5.353  -0.136  -0.778
Pb  -0.048  6.321  -0.629
Pb  -1.128  1.165  6.036
Pb  5.951  -5.583  -0.320
I  -3.926  -5.705  5.151
I  2.722  4.913  -6.525
I  5.691  -3.070  5.361
I  -5.952  2.089  -4.360
I  -5.974  -5.737  -4.214
I  5.509  6.269  2.533
I  -3.182  -5.766  -0.213
I  2.935  5.987  -1.528
I  -0.041  -2.925  -6.918
I  -2.559  3.485  -6.567
I  5.591  -1.629  -3.652
I  -5.895  0.508  2.546
I  5.350  -2.905  0.947
I  -6.197  3.118  -0.408
I  -3.470  -0.954  5.759
I  2.544  0.973  5.573
I  0.415  -5.527  2.584
I  -0.384  6.297  -3.990
I  -3.734  -0.160  -0.809
I  2.565  -0.554  0.088
I  -0.299  -2.997  -1.486
I  -0.559  3.222  0.015
I  -0.348  0.504  -3.616
I  -1.005  -0.422  2.464
Zn  -1.208  -0.905  0.025
   40
step   14
Cs  -3.512  -3.529  -3.376
Cs  2.683  3.473  2.036
Cs  2.710  2.507  -3.161
Cs  -3.960  -2.937  2.524
Cs  2.816  -2.188  3.503
Cs  -2.909  3.264  -2.842
Cs  -3.525  3.696  2.299
Cs  2.368  -3.261  -4.358
Pb  6.134  4.522  -6.035
Pb  -1.020  -5.918  5.180
Pb  -6.464  -0.153  5.543
Pb  5.354  -0.118  -0.756
Pb  -0.059  6.332  -0.638
Pb  -1.141  1.143  6.044
Pb  5.966  -5.596  -0.308
I  -3.918  -5.709  5.136
I  2.711  4.929  -6.539
I  5.735  -3.078  5.357
I  -5.983  2.074  -4.417
I  -5.963  -5.774  -4.213
I  5.498  6.301  2.563
I  -3.195  -5.735  -0.223
I  2.934  6.008  -1.524
I  -0.045  -2.923  -6.938
I  -2.576  3.479  -6.576
I  5.604  -1.665  -3.643
I  -5.899  0.509  2.571
I  5.374  -2.934  0.971
I  -6.178  3.158  -0.386
I  -3.497  -0.962  5.777
I  2.548  0.964  5.565
I  0.418  -5.545  2.590
I  -0.386  6.331  -3.979
I  -3.747  -0.139  -0.782
I  2.568  -0.542  0.078
I  -0.338  -3.014  -1.485
I  -0.533  3.210  0.019
I  -0.332  0.480  -3.596
I  -0.987  -0.389  2.447
Zn  -1.263  -0.883  0.034
   40
step   15
Cs  -3.537  -3.542  -3.347
Cs  2.689  3.423  1.994
Cs  2.706  2.480  -3.167
Cs  -3.954  -2.901  2.510
Cs  2.817  -2.169  3.459
Cs  -2.922  3.223  -2.833
Cs  -3.526  3.678  2.290
Cs  2.392  -3.252  -4.386
Pb  6.159  4.538  -6.013
Pb  -1.030  -5.894  5.169
Pb  -6.460  -0.147  5.540
Pb  5.359  -0.101  -0.733
Pb  -0.071  6.342  -0.648
Pb  -1.150  1.117  6.052
Pb  5.980  -5.612  -0.294
I  -3.912  -5.710  5.118
I  2.706  4.945  -6.552
I  5.778  -3.086  5.353
I  -6.016  2.060  -4.475
I  -5.954  -5.815  -4.211
I  5.486  6.331  2.593
I  -3.212  -5.704  -0.232
I  2.935  6.029  -1.521
I  -0.051  -2.925  -6.959
I  -2.596  3.476  -6.585
I  5.617  -1.699  -3.629
I  -5.903  0.511  2.597
I  5.399  -2.960  0.991
I  -6.162  3.197  -0.365
I  -3.521  -0.970  5.798
I  2.551  0.955  5.557
I  0.426  -5.562  2.591
I  -0.388  6.365  -3.967
I  -3.754  -0.119  -0.756
I  2.566  -0.527  0.068
I  -0.378  -3.026  -1.481
I  -0.505  3.200  0.023
I  -0.316  0.456  -3.577
I  -0.967  -0.355  2.430
Zn  -1.323  -0.867  0.032
   40
step   16
Cs  -3.560  -3.551  -3.319
Cs  2.696  3.374  1.954
Cs  2.702  2.455  -3.173
Cs  -3.947  -2.865  2.497
Cs  2.816  -2.151  3.415
Cs  -2.936  3.184  -2.822
Cs  -3.530  3.660  2.280
Cs  2.416  -3.245  -4.412
Pb  6.181  4.554  -5.994
Pb  -1.037  -5.870  5.161
Pb  -6.457  -0.141  5.538
Pb  5.366  -0.085  -0.710
Pb  -0.084  6.351  -0.657
Pb  -1.157  1.086  6.059
Pb  5.993  -5.630  -0.279
I  -3.911  -5.708  5.098
I  2.705  4.961  -6.565
I  5.820  -3.096  5.350
I  -6.050  2.045  -4.532
I  -5.949  -5.859  -4.206
I  5.474  6.359  2.622
I  -3.231  -5.674  -0.240
I  2.938  6.049  -1.518
I  -0.058  -2.929  -6.980
I  -2.617  3.475  -6.593
I  5.630  -1.730  -3.609
I  -5.909  0.514  2.623
I  5.423  -2.981  1.009
I  -6.148  3.237  -0.347
I  -3.544  -0.978  5.820
I  2.555  0.945  5.550
I  0.437  -5.578  2.587
I  -0.392  6.397  -3.953
I  -3.757  -0.101  -0.731
I  2.562  -0.509  0.056
I  -0.418  -3.032  -1.472
I  -0.477  3.191  0.026
I  -0.302  0.433  -3.558
I  -0.946  -0.321  2.416
Zn  -1.386  -0.859  0.019
   40
step   17
Cs  -3.579  -3.557  -3.294
Cs  2.705  3.325  1.917
Cs  2.700  2.431  -3.180
Cs  -3.938  -2.830  2.485
Cs  2.813  -2.133  3.371
Cs  -2.950  3.145  -2.810
Cs  -3.534  3.642  2.269
Cs  2.442  -3.240  -4.437
Pb  6.200  4.571  -5.978
Pb  -1.041  -5.846  5.158
Pb  -6.458  -0.134  5.536
Pb  5.376  -0.071  -0.688
Pb  -0.097  6.360  -0.667
Pb  -1.161  1.051  6.065
Pb  6.006  -5.652  -0.262
I  -3.914  -5.704  5.074
I  2.710  4.977  -6.575
I  5.859  -3.104  5.346
I  -6.085  2.031  -4.587
I  -5.946  -5.904  -4.197
I  5.461  6.384  2.649
I  -3.253  -5.645  -0.246
I  2.942  6.068  -1.516
I  -0.067  -2.935  -7.001
I  -2.638  3.474  -6.599
I  5.642  -1.759  -3.583
I  -5.916  0.517  2.646
I  5.448  -2.995  1.022
I  -6.136  3.277  -0.330
I  -3.565  -0.985  5.845
I  2.558  0.934  5.542
I  0.453  -5.594  2.578
I  -0.397  6.428  -3.938
I  -3.756  -0.085  -0.708
I  2.554  -0.487  0.042
I  -0.458  -3.031  -1.459
I  -0.449  3.183  0.027
I  -0.290  0.410  -3.541
I  -0.923  -0.287  2.402
Zn  -1.448  -0.860  -0.003
   40
step   18
Cs  -3.596  -3.560  -3.270
Cs  2.716  3.276  1.882
Cs  2.698  2.410  -3.189
Cs  -3.927  -2.795  2.473
Cs  2.808  -2.117  3.327
Cs  -2.963  3.108  -2.798
Cs  -3.540  3.624  2.257
Cs  2.467  -3.236  -4.460
Pb  6.217  4.589  -5.966
Pb  -1.041  -5.822  5.158
Pb  -6.462  -0.129  5.534
Pb  5.387  -0.059  -0.665
Pb  -0.110  6.367  -0.676
Pb  -1.164  1.014  6.071
Pb  6.018  -5.677  -0.245
I  -3.921  -5.696  5.047
I  2.720  4.993  -6.584
I  5.895  -3.112  5.344
I  -6.120  2.017  -4.639
I  -5.946  -5.948  -4.183
I  5.448  6.405  2.676
I  -3.277  -5.617  -0.252
I  2.946  6.086  -1.515
I  -0.077  -2.943  -7.023
I  -2.658  3.472  -6.604
I  5.654  -1.785  -3.552
I  -5.925  0.522  2.667
I  5.473  -3.003  1.031
I  -6.127  3.316  -0.316
I  -3.582  -0.993  5.872
I  2.560  0.921  5.536
I  0.472  -5.610  2.564
I  -0.402  6.458  -3.921
I  -3.755  -0.069  -0.688
I  2.545  -0.461  0.027
I  -0.498  -3.024  -1.442
I  -0.420  3.177  0.027
I  -0.280  0.387  -3.526
I  -0.899  -0.253  2.388
Zn  -1.504  -0.869  -0.029
   40
step   19
Cs  -3.611  -3.561  -3.250
Cs  2.730  3.229  1.851
Cs  2.697  2.391  -3.198
Cs  -3.914  -2.762  2.463
Cs  2.801  -2.102  3.285
Cs  -2.977  3.073  -2.785
Cs  -3.545  3.607  2.244
Cs  2.493  -3.233  -4.483
Pb  6.231  4.606  -5.961
Pb  -1.039  -5.800  5.161
Pb  -6.469  -0.125  5.533
Pb  5.400  -0.049  -0.642
Pb  -0.123  6.374  -0.685
Pb  -1.166  0.975  6.076
Pb  6.028  -5.705  -0.225
I  -3.931  -5.687  5.016
I  2.735  5.009  -6.591
I  5.928  -3.118  5.341
I  -6.155  2.002  -4.686
I  -5.947  -5.990  -4.164
I  5.435  6.423  2.700
I  -3.303  -5.591  -0.256
I  2.951  6.104  -1.514
I  -0.087  -2.951  -7.045
I  -2.677  3.467  -6.608
I  5.665  -1.806  -3.515
I  -5.934  0.529  2.685
I  5.496  -3.003  1.035
I  -6.121  3.354  -0.305
I  -3.596  -1.000  5.900
I  2.562  0.907  5.529
I  0.496  -5.625  2.546
I  -0.409  6.488  -3.903
I  -3.756  -0.052  -0.670
I  2.533  -0.433  0.010
I  -0.537  -3.010  -1.422
I  -0.392  3.173  0.026
I  -0.271  0.365  -3.512
I  -0.875  -0.219  2.372
Zn  -1.549  -0.887  -0.055
   40
step   20
Cs  -3.623  -3.559  -3.233
Cs  2.745  3.182  1.822
Cs  2.698  2.374  -3.208
Cs  -3.899  -2.729  2.453
Cs  2.793  -2.088  3.243
Cs  -2.991  3.039  -2.772
Cs  -3.551  3.590  2.231
Cs  2.519  -3.232  -4.504
Pb  6.243  4.622  -5.961
Pb  -1.034  -5.779  5.166
Pb  -6.480  -0.124  5.533
Pb  5.413  -0.042  -0.620
Pb  -0.136  6.379  -0.694
Pb  -1.167  0.934  6.081
Pb  6.037  -5.736  -0.204
I  -3.945  -5.675  4.982
I  2.754  5.025  -6.597
I  5.956  -3.122  5.340
I  -6.190  1.988  -4.727
I  -5.949  -6.027  -4.138
I  5.421  6.437  2.723
I  -3.329  -5.566  -0.258
I  2.955  6.120  -1.514
I  -0.097  -2.960  -7.067
I  -2.692  3.459  -6.609
I  5.676  -1.824  -3.472
I  -5.945  0.538  2.698
I  5.519  -2.995  1.035
I  -6.117  3.391  -0.296
I  -3.606  -1.007  5.931
I  2.563  0.891  5.523
I  0.522  -5.640  2.525
I  -0.416  6.517  -3.885
I  -3.761  -0.034  -0.656
I  2.522  -0.401  -0.009
I  -0.576  -2.990  -1.398
I  -0.365  3.171  0.023
I  -0.265  0.344  -3.499
I  -0.851  -0.187  2.354
Zn  -1.577  -0.915  -0.077
   40
step   21
Cs  -3.634  -3.554  -3.220
Cs  2.762  3.137  1.798
Cs  2.699  2.361  -3.219
Cs  -3.882  -2.697  2.446
Cs  2.783  -2.077  3.203
Cs  -3.004  3.008  -2.760
Cs  -3.556  3.573  2.219
Cs  2.545  -3.232  -4.525
Pb  6.252  4.638  -5.968
Pb  -1.028  -5.760  5.173
Pb  -6.495  -0.126  5.533
Pb  5.427  -0.039  -0.597
Pb  -0.148  6.382  -0.702
Pb  -1.168  0.893  6.085
Pb  6.044  -5.770  -0.182
I  -3.959  -5.661  4.944
I  2.779  5.041  -6.599
I  5.979  -3.124  5.339
I  -6.225  1.974  -4.762
I  -5.953  -6.060  -4.105
I  5.406  6.448  2.743
I  -3.355  -5.542  -0.259
I  2.959  6.136  -1.514
I  -0.106  -2.968  -7.090
I  -2.705  3.447  -6.608
I  5.686  -1.837  -3.424
I  -5.956  0.549  2.706
I  5.541  -2.980  1.031
I  -6.115  3.426  -0.290
I  -3.613  -1.015  5.963
I  2.563  0.873  5.518
I  0.551  -5.655  2.502
I  -0.424  6.545  -3.866
I  -3.771  -0.013  -0.645
I  2.510  -0.367  -0.030
I  -0.613  -2.965  -1.371
I  -0.339  3.173  0.017
I  -0.261  0.323  -3.489
I  -0.827  -0.155  2.333
Zn  -1.586  -0.951  -0.093
   40
step   22
Cs  -3.642  -3.546  -3.210
Cs  2.782  3.093  1.777
Cs  2.701  2.350  -3.230
Cs  -3.864  -2.667  2.439
Cs  2.772  -2.067  3.164
Cs  -3.017  2.979  -2.747
Cs  -3.561  3.558  2.206
Cs  2.571  -3.234  -4.546
Pb  6.259  4.653  -5.982
Pb  -1.020  -5.743  5.182
Pb  -6.513  -0.131  5.533
Pb  5.441  -0.040  -0.575
Pb  -0.159  6.383  -0.709
Pb  -1.169  0.851  6.089
Pb  6.049  -5.807  -0.158
I  -3.973  -5.647  4.904
I  2.808  5.057  -6.600
I  5.997  -3.122  5.340
I  -6.259  1.961  -4.790
I  -5.959  -6.089  -4.066
I  5.391  6.455  2.761
I  -3.381  -5.520  -0.257
I  2.961  6.150  -1.514
I  -0.114  -2.974  -7.113
I  -2.715  3.432  -6.605
I  5.695  -1.846  -3.372
I  -5.968  0.562  2.710
I  5.562  -2.958  1.022
I  -6.116  3.459  -0.287
I  -3.617  -1.022  5.998
I  2.562  0.854  5.514
I  0.582  -5.669  2.478
I  -0.432  6.572  -3.848
I  -3.784  0.010  -0.637
I  2.498  -0.331  -0.054
I  -0.648  -2.936  -1.343
I  -0.315  3.177  0.010
I  -0.259  0.302  -3.480
I  -0.804  -0.126  2.309
Zn  -1.579  -0.991  -0.099
   40
step   23
Cs  -3.650  -3.536  -3.205
Cs  2.804  3.050  1.759
Cs  2.704  2.341  -3.242
Cs  -3.844  -2.637  2.435
Cs  2.760  -2.060  3.127
Cs  -3.029  2.952  -2.736
Cs  -3.564  3.543  2.195
Cs  2.597  -3.237  -4.566
Pb  6.265  4.668  -6.000
Pb  -1.012  -5.729  5.191
Pb  -6.535  -0.139  5.534
Pb  5.455  -0.045  -0.553
Pb  -0.170  6.382  -0.715
Pb  -1.171  0.809  6.092
Pb  6.052  -5.846  -0.133
I  -3.985  -5.632  4.861
I  2.841  5.072  -6.598
I  6.009  -3.117  5.341
I  -6.292  1.951  -4.812
I  -5.965  -6.114  -4.023
I  5.376  6.459  2.777
I  -3.405  -5.500  -0.253
I  2.961  6.163  -1.515
I  -0.122  -2.979  -7.136
I  -2.721  3.414  -6.600
I  5.701  -1.850  -3.315
I  -5.981  0.578  2.709
I  5.581  -2.929  1.009
I  -6.118  3.489  -0.287
I  -3.618  -1.029  6.034
I  2.561  0.834  5.510
I  0.615  -5.682  2.455
I  -0.441  6.600  -3.830
I  -3.800  0.034  -0.630
I  2.487  -0.292  -0.080
I  -0.679  -2.908  -1.314
I  -0.292  3.184  -0.000
I  -0.259  0.283  -3.474
I  -0.782  -0.097  2.282
Zn  -1.562  -1.026  -0.094
   40
step   24
Cs  -3.656  -3.525  -3.204
Cs  2.829  3.009  1.746
Cs  2.707  2.336  -3.255
Cs  -3.823  -2.608  2.432
Cs  2.747  -2.056  3.090
Cs  -3.042  2.928  -2.725
Cs  -3.565  3.529  2.184
Cs  2.622  -3.242  -4.586
Pb  6.268  4.683  -6.024
Pb  -1.004  -5.717  5.201
Pb  -6.560  -0.151  5.535
Pb  5.469  -0.055  -0.532
Pb  -0.179  6.378  -0.720
Pb  -1.172  0.768  6.095
Pb  6.052  -5.887  -0.106
I  -3.994  -5.617  4.816
I  2.879  5.087  -6.595
I  6.015  -3.109  5.345
I  -6.325  1.943  -4.828
I  -5.973  -6.138  -3.976
I  5.360  6.460  2.790
I  -3.427  -5.481  -0.247
I  2.959  6.176  -1.517
I  -0.128  -2.980  -7.160
I  -2.724  3.392  -6.593
I  5.706  -1.851  -3.254
I  -5.994  0.596  2.704
I  5.599  -2.894  0.992
I  -6.122  3.516  -0.289
I  -3.618  -1.037  6.072
I  2.559  0.812  5.506
I  0.650  -5.695  2.432
I  -0.450  6.627  -3.815
I  -3.815  0.059  -0.625
I  2.477  -0.252  -0.109
I  -0.705  -2.883  -1.288
I  -0.272  3.194  -0.013
I  -0.261  0.263  -3.469
I  -0.762  -0.071  2.253
Zn  -1.543  -1.048  -0.074
   40
step   25
Cs  -3.660  -3.511  -3.207
Cs  2.856  2.970  1.736
Cs  2.710  2.333  -3.269
Cs  -3.801  -2.580  2.431
Cs  2.733  -2.054  3.055
Cs  -3.053  2.907  -2.716
Cs  -3.565  3.517  2.175
Cs  2.647  -3.249  -4.606
Pb  6.270  4.698  -6.050
Pb  -0.996  -5.709  5.211
Pb  -6.587  -0.165  5.535
Pb  5.483  -0.069  -0.512
Pb  -0.187  6.372  -0.724
Pb  -1.174  0.728  6.097
Pb  6.048  -5.928  -0.079
I  -3.999  -5.603  4.770
I  2.921  5.102  -6.589
I  6.015  -3.097  5.349
I  -6.357  1.940  -4.837
I  -5.983  -6.160  -3.927
I  5.343  6.458  2.801
I  -3.447  -5.463  -0.239
I  2.955  6.187  -1.520
I  -0.133  -2.979  -7.183
I  -2.725  3.367  -6.584
I  5.708  -1.847  -3.190
I  -6.008  0.616  2.696
I  5.616  -2.853  0.973
I  -6.127  3.537  -0.294
I  -3.616  -1.044  6.111
I  2.557  0.788  5.504
I  0.686  -5.707  2.412
I  -0.460  6.654  -3.803
I  -3.827  0.083  -0.620
I  2.467  -0.211  -0.140
I  -0.724  -2.866  -1.266
I  -0.253  3.208  -0.029
I  -0.264  0.245  -3.468
I  -0.742  -0.046  2.222
Zn  -1.527  -1.049  -0.037
   40
step   26
Cs  -3.664  -3.496  -3.214
Cs  2.885  2.934  1.730
Cs  2.713  2.332  -3.283
Cs  -3.779  -2.552  2.432
Cs  2.719  -2.054  3.021
Cs  -3.065  2.889  -2.708
Cs  -3.562  3.506  2.168
Cs  2.671  -3.257  -4.626
Pb  6.271  4.714  -6.079
Pb  -0.989  -5.705  5.222
Pb  -6.615  -0.182  5.536
Pb  5.495  -0.087  -0.494
Pb  -0.193  6.364  -0.726
Pb  -1.175  0.689  6.099
Pb  6.042  -5.969  -0.051
I  -3.998  -5.590  4.723
I  2.967  5.115  -6.581
I  6.009  -3.082  5.355
I  -6.389  1.940  -4.841
I  -5.994  -6.181  -3.878
I  5.326  6.454  2.810
I  -3.464  -5.447  -0.227
I  2.948  6.196  -1.523
I  -0.136  -2.975  -7.207
I  -2.722  3.339  -6.574
I  5.707  -1.839  -3.125
I  -6.022  0.639  2.686
I  5.632  -2.808  0.950
I  -6.132  3.552  -0.300
I  -3.615  -1.050  6.152
I  2.555  0.762  5.501
I  0.724  -5.718  2.395
I  -0.470  6.682  -3.794
I  -3.836  0.106  -0.614
I  2.459  -0.170  -0.174
I  -0.736  -2.857  -1.249
I  -0.236  3.226  -0.047
I  -0.269  0.228  -3.468
I  -0.724  -0.022  2.191
Zn  -1.518  -1.025  0.016
   40
step   27
Cs  -3.666  -3.480  -3.223
Cs  2.916  2.900  1.728
Cs  2.716  2.334  -3.297
Cs  -3.756  -2.525  2.436
Cs  2.703  -2.057  2.987
Cs  -3.076  2.874  -2.702
Cs  -3.557  3.496  2.162
Cs  2.694  -3.267  -4.645
Pb  6.269  4.730  -6.109
Pb  -0.984  -5.704  5.232
Pb  -6.645  -0.201  5.536
Pb  5.507  -0.109  -0.476
Pb  -0.198  6.354  -0.727
Pb  -1.175  0.653  6.100
Pb  6.032  -6.008  -0.024
I  -3.992  -5.579  4.675
I  3.018  5.128  -6.572
I  5.996  -3.064  5.362
I  -6.418  1.946  -4.840
I  -6.006  -6.203  -3.831
I  5.309  6.447  2.817
I  -3.479  -5.431  -0.213
I  2.937  6.204  -1.528
I  -0.137  -2.967  -7.231
I  -2.717  3.308  -6.562
I  5.703  -1.828  -3.059
I  -6.037  0.665  2.675
I  5.647  -2.760  0.925
I  -6.138  3.559  -0.308
I  -3.613  -1.057  6.195
I  2.554  0.735  5.499
I  0.762  -5.729  2.382
I  -0.480  6.709  -3.789
I  -3.841  0.128  -0.608
I  2.452  -0.129  -0.210
I  -0.742  -2.856  -1.236
I  -0.221  3.246  -0.068
I  -0.276  0.211  -3.471
I  -0.706  0.002  2.162
Zn  -1.516  -0.983  0.077
   40
step   28
Cs  -3.668  -3.464  -3.235
Cs  2.949  2.868  1.729
Cs  2.717  2.339  -3.312
Cs  -3.734  -2.499  2.441
Cs  2.688  -2.063  2.954
Cs  -3.086  2.863  -2.698
Cs  -3.550  3.488  2.157
Cs  2.717  -3.280  -4.665
Pb  6.266  4.746  -6.139
Pb  -0.979  -5.706  5.243
Pb  -6.676  -0.221  5.537
Pb  5.518  -0.134  -0.460
Pb  -0.201  6.342  -0.727
Pb  -1.175  0.618  6.102
Pb  6.018  -6.044  0.003
I  -3.980  -5.568  4.628
I  3.072  5.140  -6.562
I  5.978  -3.044  5.370
I  -6.446  1.956  -4.835
I  -6.020  -6.226  -3.787
I  5.291  6.438  2.824
I  -3.492  -5.417  -0.196
I  2.924  6.211  -1.534
I  -0.137  -2.957  -7.255
I  -2.709  3.275  -6.549
I  5.695  -1.814  -2.993
I  -6.053  0.692  2.663
I  5.661  -2.711  0.900
I  -6.142  3.557  -0.317
I  -3.614  -1.062  6.239
I  2.552  0.706  5.497
I  0.800  -5.739  2.372
I  -0.491  6.736  -3.790
I  -3.841  0.148  -0.601
I  2.445  -0.089  -0.248
I  -0.745  -2.859  -1.225
I  -0.208  3.268  -0.091
I  -0.284  0.196  -3.477
I  -0.687  0.028  2.140
Zn  -1.521  -0.931  0.135
   40
step   29
Cs  -3.668  -3.447  -3.250
Cs  2.984  2.839  1.734
Cs  2.717  2.345  -3.327
Cs  -3.713  -2.473  2.449
Cs  2.672  -2.072  2.921
Cs  -3.096  2.856  -2.696
Cs  -3.540  3.482  2.155
Cs  2.739  -3.294  -4.684
Pb  6.261  4.763  -6.169
Pb  -0.976  -5.712  5.253
Pb  -6.708  -0.240  5.537
Pb  5.527  -0.160  -0.446
Pb  -0.202  6.329  -0.725
Pb  -1.175  0.585  6.103
Pb  6.002  -6.075  0.028
I  -3.961  -5.559  4.582