   40
step    7
Cs  -3.256  -3.381  -3.607
Cs  2.661  3.809  2.355
Cs  2.753  2.697  -3.152
Cs  -3.974  -3.180  2.625
Cs  2.718  -2.284  3.736
Cs  -2.827  3.560  -2.872
Cs  -3.575  3.802  2.310
Cs  2.271  -3.356  -4.111
Pb  5.913  4.449  -6.176
Pb  -0.895  -6.053  5.353
Pb  -6.522  -0.141  5.555
Pb  5.394  -0.222  -0.903
Pb  -0.006  6.251  -0.578
Pb  -0.971  1.170  5.953
Pb  5.864  -5.529  -0.389
I  -3.989  -5.636  5.199
I  2.886  4.828  -6.424
I  5.457  -3.069  5.411
I  -5.827  2.211  -4.113
I  -6.109  -5.641  -4.198
I  5.562  6.065  2.363
I  -3.174  -5.949  -0.143
I  2.979  5.870  -1.569
I  -0.063  -3.031  -6.789
I  -2.544  3.613  -6.517
I  5.502  -1.411  -3.636
I  -5.903  0.507  2.446
I  5.248  -2.746  0.783
I  -6.357  2.904  -0.562
I  -3.334  -0.899  5.687
I  2.529  1.003  5.614
I  0.475  -5.400  2.468
I  -0.393  6.084  -4.029
I  -3.535  -0.344  -0.978
I  2.474  -0.522  0.126
I  -0.071  -2.857  -1.438
I  -0.666  3.308  -0.012
I  -0.461  0.647  -3.725
I  -1.089  -0.613  2.525
Zn  -1.054  -1.059  -0.073
