   40
step  938
Cs  -3.707  -3.727  -4.055
Cs  3.229  2.029  2.804
Cs  1.880  3.149  -2.911
Cs  -4.008  -2.919  3.785
Cs  2.657  -3.283  2.188
Cs  -4.269  3.396  -4.290
Cs  -2.876  3.558  2.470
Cs  2.166  -3.204  -3.409
Pb  5.567  5.870  -6.724
Pb  -0.594  -5.985  5.467
Pb  -6.603  0.315  5.881
Pb  5.991  -0.125  -1.189
Pb  -0.476  6.711  -0.692
Pb  -0.701  -0.026  5.820
Pb  5.975  -6.086  -0.165
I  -3.496  -6.431  5.797
I  3.000  4.607  -6.665
I  5.276  -2.915  6.606
I  -5.862  2.953  -7.390
I  -6.494  -5.657  -3.323
I  5.581  6.226  2.650
I  -3.518  -7.531  -0.638
I  3.200  6.786  -0.841
I  -0.316  -3.591  -5.926
I  -0.496  2.721  -6.391
I  4.224  0.077  -4.037
I  -6.086  0.012  2.610
I  8.220  -2.910  -0.235
I  -7.110  3.261  -0.926
I  -4.248  0.009  7.579
I  2.105  -0.484  4.998
I  -0.731  -4.591  2.782
I  -0.480  6.049  -4.071
I  -3.218  1.127  -1.032
I  3.338  -0.625  -0.225
I  -0.166  -2.345  -0.586
I  -0.014  3.939  0.588
I  -0.167  -0.041  -3.694
I  -1.269  -0.301  2.251
Zn  -2.064  -0.767  -0.025
