   40
step  654
Cs  -3.533  -2.767  -3.225
Cs  3.019  3.124  3.065
Cs  2.450  3.160  -3.294
Cs  -3.803  -3.069  2.503
Cs  3.024  -2.983  2.578
Cs  -3.059  2.924  -3.911
Cs  -3.454  3.495  1.887
Cs  1.506  -3.253  -3.740
Pb  6.577  5.877  -6.270
Pb  -0.372  -6.336  6.041
Pb  -7.165  0.644  6.262
Pb  4.783  -0.297  -0.652
Pb  0.656  6.206  -0.445
Pb  -1.221  -0.275  5.592
Pb  5.866  -6.521  -0.126
I  -3.239  -5.040  5.608
I  2.675  5.651  -6.505
I  5.211  -3.629  7.015
I  -5.560  2.795  -7.159
I  -5.655  -6.844  -2.881
I  6.017  6.888  2.967
I  -3.555  -5.894  0.418
I  3.165  6.072  -1.907
I  -0.225  -3.262  -7.860
I  -1.646  2.849  -7.070
I  5.368  0.573  -3.603
I  -6.148  -0.217  2.293
I  5.728  -3.185  -1.587
I  -6.945  3.245  0.459
I  -4.199  -1.199  5.682
I  2.538  0.007  5.801
I  0.847  -5.846  2.861
I  -0.650  6.453  -3.867
I  -3.310  0.667  -0.835
I  1.942  -0.942  -0.394
I  -0.905  -2.706  -0.224
I  -0.257  3.438  -0.512
I  -0.844  -0.352  -4.080
I  -0.569  1.095  2.599
Zn  -1.265  -0.259  0.259
