   40
step  973
Cs  -2.587  -3.637  -3.271
Cs  2.895  2.050  2.738
Cs  1.325  2.500  -3.261
Cs  -4.017  -2.480  3.760
Cs  3.083  -2.845  2.685
Cs  -4.912  3.228  -4.176
Cs  -3.118  3.385  1.877
Cs  2.843  -3.364  -3.357
Pb  5.399  5.684  -7.075
Pb  -0.478  -6.311  5.289
Pb  -7.019  0.046  5.711
Pb  6.074  -0.065  -1.035
Pb  -0.352  6.543  -0.240
Pb  -1.038  0.275  5.980
Pb  5.951  -6.539  -0.584
I  -3.546  -5.595  5.955
I  2.693  4.292  -6.668
I  5.683  -3.405  5.540
I  -6.406  2.983  -8.138
I  -6.148  -4.832  -3.047
I  6.236  6.772  2.427
I  -3.455  -7.115  -1.153
I  3.208  6.490  -0.985
I  0.366  -3.571  -6.176
I  -1.336  3.054  -6.755
I  4.765  0.742  -3.843
I  -6.894  0.010  2.507
I  7.569  -2.929  -0.149
I  -7.224  3.149  -0.538
I  -3.807  0.030  7.197
I  2.517  -0.408  5.484
I  -0.894  -4.765  2.927
I  0.407  6.304  -3.299
I  -2.994  1.018  -1.036
I  3.222  -0.467  -0.129
I  -0.659  -2.834  -0.532
I  0.586  4.252  1.503
I  0.095  -0.660  -3.580
I  -1.810  0.044  2.466
Zn  -2.736  -1.444  0.065
