   40
step  480
Cs  -4.024  -2.368  -3.450
Cs  3.288  3.115  3.090
Cs  2.689  2.257  -3.676
Cs  -3.810  -2.520  2.576
Cs  2.057  -3.007  2.013
Cs  -3.307  2.820  -4.060
Cs  -3.299  3.455  2.285
Cs  1.278  -3.529  -3.147
Pb  5.816  5.564  -6.679
Pb  -0.445  -5.956  6.214
Pb  -6.985  -0.050  5.521
Pb  5.557  0.040  -0.983
Pb  -0.587  6.074  -0.743
Pb  -0.280  0.430  5.695
Pb  5.157  -6.183  -0.631
I  -3.565  -6.340  5.361
I  3.337  5.534  -5.102
I  6.424  -3.513  6.252
I  -6.236  2.729  -6.888
I  -5.782  -6.198  -3.007
I  4.959  6.532  2.797
I  -3.857  -5.911  0.866
I  2.799  6.471  -0.730
I  0.629  -3.436  -7.005
I  0.138  2.763  -6.336
I  6.293  0.146  -3.832
I  -7.569  -0.452  2.683
I  6.003  -3.395  -0.676
I  -6.492  3.537  0.108
I  -3.515  -0.058  5.841
I  2.926  1.065  5.828
I  -0.251  -6.679  2.845
I  -1.695  6.795  -4.123
I  -2.732  0.756  -0.858
I  2.586  -0.756  -0.865
I  -1.324  -2.831  -0.269
I  -0.119  3.183  -0.895
I  -0.532  -0.090  -3.949
I  0.048  0.257  2.529
Zn  -1.056  -0.412  0.569
