   40
step  270
Cs  -3.598  -3.075  -3.461
Cs  3.402  3.269  3.600
Cs  2.410  2.472  -3.074
Cs  -4.804  -2.723  2.110
Cs  3.120  -3.123  2.167
Cs  -3.075  3.413  -3.791
Cs  -2.654  2.675  2.581
Cs  2.847  -3.115  -3.646
Pb  5.720  5.781  -6.750
Pb  -0.376  -5.585  5.713
Pb  -6.535  0.761  6.561
Pb  5.461  0.026  -0.221
Pb  -0.367  6.455  -0.355
Pb  -0.737  0.209  6.176
Pb  5.257  -7.419  -0.169
I  -3.488  -6.389  5.999
I  2.918  5.369  -5.826
I  5.125  -2.968  6.077
I  -5.698  2.698  -7.056
I  -5.805  -6.377  -3.251
I  5.273  6.208  2.411
I  -3.895  -5.958  0.668
I  2.974  6.463  -1.743
I  -0.444  -3.906  -8.338
I  -0.442  2.527  -6.733
I  6.248  1.458  -3.138
I  -7.062  0.288  2.901
I  5.676  -3.092  -1.085
I  -8.539  3.270  -0.159
I  -3.736  -0.419  5.544
I  2.991  1.049  6.515
I  0.307  -7.136  2.927
I  0.074  7.021  -4.558
I  -3.637  0.183  -0.409
I  2.502  -0.690  -1.152
I  -1.128  -3.066  -1.030
I  -0.346  3.600  -1.261
I  -0.850  0.044  -3.250
I  0.272  -0.006  1.870
Zn  -1.124  -0.631  -0.249
