   40
step  186
Cs  -4.888  -2.839  -3.189
Cs  2.451  3.146  2.815
Cs  2.700  2.406  -3.466
Cs  -3.456  -2.670  3.821
Cs  3.011  -3.232  2.665
Cs  -3.196  3.139  -3.612
Cs  -3.387  3.155  2.206
Cs  2.501  -3.082  -4.401
Pb  5.493  5.921  -6.575
Pb  -0.848  -6.213  6.749
Pb  -6.635  0.162  5.329
Pb  5.443  -0.131  -0.819
Pb  -0.138  6.024  -0.534
Pb  -0.133  0.188  5.727
Pb  5.763  -6.401  -0.417
I  -3.504  -6.065  5.242
I  2.783  5.034  -5.744
I  5.403  -3.417  6.353
I  -5.773  3.115  -7.509
I  -6.162  -7.061  -3.428
I  5.457  5.756  2.808
I  -3.880  -6.274  0.540
I  2.614  7.059  -1.270
I  0.075  -3.268  -7.695
I  -0.375  2.942  -6.175
I  6.215  0.457  -3.772
I  -6.998  0.935  2.267
I  6.447  -3.265  0.427
I  -6.937  3.013  -0.617
I  -3.561  0.021  6.760
I  2.738  -0.142  5.209
I  0.185  -6.467  2.616
I  -1.502  7.644  -3.381
I  -3.273  0.770  -0.498
I  2.120  -0.563  -1.128
I  -1.137  -2.838  0.138
I  0.081  3.282  -1.703
I  -0.287  -0.501  -3.815
I  -0.504  0.751  2.270
Zn  -0.709  -0.401  -0.058
