   40
step  368
Cs  -3.434  -3.877  -3.842
Cs  2.755  1.991  3.952
Cs  2.505  2.581  -3.190
Cs  -4.489  -3.281  2.374
Cs  2.075  -3.291  2.026
Cs  -2.953  4.532  -4.429
Cs  -3.309  3.670  2.791
Cs  3.101  -3.360  -3.739
Pb  6.207  6.000  -7.270
Pb  -0.116  -5.831  5.968
Pb  -5.734  0.978  7.123
Pb  5.439  -0.333  -0.424
Pb  -0.552  5.714  -0.928
Pb  -1.106  0.530  6.785
Pb  5.031  -7.148  0.016
I  -3.446  -5.672  5.557
I  3.027  5.410  -6.110
I  6.073  -2.683  6.290
I  -5.676  3.230  -7.192
I  -6.756  -6.084  -3.570
I  5.194  6.473  2.160
I  -3.938  -6.186  0.078
I  2.999  6.600  -1.482
I  0.308  -3.304  -7.130
I  -0.453  2.865  -6.588
I  6.816  1.878  -2.895
I  -7.345  -0.682  2.278
I  6.686  -2.986  -0.808
I  -7.792  3.083  0.386
I  -3.131  0.094  4.774
I  3.319  0.445  7.126
I  0.033  -7.589  2.603
I  0.088  6.752  -4.330
I  -3.597  0.754  -0.077
I  2.203  -0.525  -1.327
I  -1.253  -3.160  -0.147
I  -0.768  2.985  -2.079
I  -2.840  -0.643  -3.520
I  0.003  0.490  1.751
Zn  -1.551  -0.606  0.193
