   40
step  400
Cs  -3.603  -3.673  -3.273
Cs  2.643  2.824  3.584
Cs  3.293  3.303  -2.963
Cs  -4.723  -2.615  2.401
Cs  1.940  -3.113  1.928
Cs  -3.280  4.053  -4.654
Cs  -2.638  3.180  2.337
Cs  3.249  -3.617  -3.623
Pb  6.256  5.994  -6.877
Pb  -0.255  -5.845  5.435
Pb  -6.039  0.889  7.093
Pb  5.338  -0.617  -0.350
Pb  -0.149  5.914  -0.941
Pb  -1.032  0.124  6.808
Pb  5.421  -7.294  0.085
I  -3.305  -5.648  4.591
I  3.069  4.931  -6.580
I  6.388  -2.914  6.109
I  -5.939  3.271  -7.650
I  -6.936  -6.155  -3.483
I  5.224  6.503  2.318
I  -3.855  -6.558  0.223
I  2.858  6.711  -1.111
I  0.823  -3.285  -6.989
I  -0.796  2.562  -6.498
I  6.528  1.866  -2.588
I  -7.615  -0.442  2.428
I  5.861  -3.471  -0.858
I  -7.438  2.986  0.677
I  -3.533  -0.205  5.082
I  3.389  0.608  6.367
I  0.342  -6.962  2.430
I  -0.205  6.982  -4.552
I  -3.983  0.411  0.265
I  2.561  -0.474  -1.925
I  -1.139  -2.833  -0.324
I  -0.567  3.208  -1.930
I  -3.052  -0.169  -3.352
I  -0.188  0.292  2.987
Zn  -1.550  -0.406  0.887
