   40
step  506
Cs  -3.357  -2.716  -3.531
Cs  3.174  3.798  1.732
Cs  3.002  2.392  -3.023
Cs  -4.038  -2.770  3.145
Cs  2.062  -2.896  2.844
Cs  -3.119  3.061  -4.087
Cs  -3.692  2.847  2.776
Cs  1.981  -3.352  -2.983
Pb  5.527  5.730  -6.623
Pb  -0.763  -6.151  5.719
Pb  -6.878  0.242  5.577
Pb  5.632  -0.714  -0.934
Pb  -0.476  6.152  -0.772
Pb  -0.317  -0.198  5.940
Pb  5.391  -6.793  -0.912
I  -4.027  -6.468  5.655
I  3.127  5.887  -4.812
I  6.807  -3.349  5.936
I  -6.405  2.929  -7.254
I  -5.765  -6.678  -3.260
I  5.331  6.893  2.690
I  -4.518  -6.262  1.242
I  2.412  6.825  -0.392
I  0.311  -3.314  -6.370
I  -0.132  3.320  -5.845
I  5.597  0.373  -4.288
I  -7.267  0.095  2.501
I  7.135  -3.443  -0.710
I  -6.877  3.421  -0.162
I  -3.433  0.537  5.519
I  2.578  0.996  5.328
I  -0.530  -7.174  2.983
I  -0.715  6.687  -3.737
I  -3.637  0.455  -0.823
I  2.721  -0.508  -1.061
I  -0.888  -2.618  0.454
I  -0.228  3.157  -1.459
I  -0.313  -0.376  -3.647
I  0.132  1.130  1.825
Zn  -0.957  -0.130  -0.183
