   40
step  934
Cs  -3.750  -3.770  -4.055
Cs  3.344  2.130  2.712
Cs  1.910  3.155  -2.775
Cs  -4.008  -2.983  3.797
Cs  2.503  -3.253  2.206
Cs  -4.099  3.399  -4.287
Cs  -2.823  3.449  2.476
Cs  2.008  -3.185  -3.414
Pb  5.547  5.951  -6.711
Pb  -0.488  -6.037  5.401
Pb  -6.645  0.319  5.731
Pb  5.998  -0.132  -1.075
Pb  -0.428  6.736  -0.680
Pb  -0.631  0.051  5.889
Pb  6.015  -6.099  -0.058
I  -3.395  -6.405  5.861
I  2.925  4.652  -6.669
I  5.253  -3.134  6.608
I  -5.909  2.895  -7.365
I  -6.533  -5.859  -3.357
I  5.485  6.154  2.658
I  -3.662  -7.402  -0.481
I  3.207  6.933  -0.820
I  -0.381  -3.691  -5.946
I  -0.443  2.748  -6.373
I  4.207  0.172  -4.066
I  -6.056  0.113  2.511
I  8.257  -2.974  -0.302
I  -7.021  3.257  -0.974
I  -4.200  0.021  7.591
I  2.062  -0.490  4.939
I  -0.733  -4.664  2.815
I  -0.675  6.106  -4.056
I  -3.240  1.221  -1.048
I  3.416  -0.600  -0.041
I  -0.111  -2.515  -0.614
I  -0.020  3.878  0.418
I  -0.168  0.120  -3.846
I  -1.275  -0.256  2.279
Zn  -2.203  -0.889  -0.189
