   40
step  626
Cs  -4.273  -2.964  -3.366
Cs  2.993  2.774  3.328
Cs  2.139  1.907  -4.207
Cs  -3.496  -2.770  2.455
Cs  2.863  -2.799  2.919
Cs  -2.381  2.940  -3.449
Cs  -3.509  3.618  2.890
Cs  2.348  -3.218  -3.202
Pb  6.295  6.267  -6.380
Pb  -0.492  -6.457  6.033
Pb  -6.746  0.586  5.981
Pb  5.206  0.096  -0.527
Pb  -0.054  6.167  -0.623
Pb  -1.123  -0.235  5.548
Pb  5.715  -6.279  -0.114
I  -3.335  -4.955  6.017
I  2.671  4.773  -6.203
I  4.856  -3.076  6.543
I  -6.317  3.238  -7.267
I  -5.481  -6.310  -3.309
I  6.302  7.113  2.517
I  -3.290  -6.642  0.068
I  3.467  5.954  -1.607
I  -0.251  -3.364  -7.488
I  -0.779  2.531  -7.290
I  5.901  1.454  -3.676
I  -6.501  -0.466  2.919
I  5.114  -2.727  -0.997
I  -6.728  3.725  0.804
I  -4.015  -0.949  5.769
I  2.888  -0.171  5.259
I  0.906  -6.726  2.989
I  -0.562  6.475  -3.775
I  -3.947  0.510  -1.007
I  1.954  -0.111  -0.137
I  -1.502  -3.040  -0.738
I  0.272  3.275  -0.668
I  -0.550  -0.308  -4.114
I  -1.306  0.353  2.103
Zn  -1.286  -0.493  -0.292
