   40
step  496
Cs  -3.654  -2.654  -3.424
Cs  3.093  3.499  2.189
Cs  2.830  2.435  -3.238
Cs  -3.855  -2.537  2.975
Cs  1.952  -2.935  2.530
Cs  -3.174  3.013  -4.063
Cs  -3.654  3.102  2.790
Cs  1.730  -3.619  -3.168
Pb  5.699  5.467  -6.747
Pb  -0.736  -6.096  5.855
Pb  -6.961  0.199  5.417
Pb  5.738  -0.482  -0.863
Pb  -0.564  6.055  -0.984
Pb  -0.423  0.035  5.844
Pb  5.438  -6.512  -0.728
I  -3.617  -6.504  5.595
I  3.104  5.746  -4.730
I  6.767  -3.426  5.955
I  -6.206  3.082  -7.119
I  -5.788  -6.565  -3.189
I  5.407  6.818  2.879
I  -4.612  -5.919  0.967
I  2.565  6.843  -0.354
I  0.475  -3.362  -6.512
I  -0.090  3.172  -5.999
I  5.777  0.232  -4.071
I  -7.398  -0.079  2.396
I  6.723  -3.291  -0.738
I  -6.806  3.298  -0.056
I  -3.475  0.230  5.771
I  2.794  1.043  5.446
I  -0.321  -6.954  3.062
I  -1.272  6.611  -3.727
I  -3.487  0.488  -1.184
I  2.514  -0.646  -1.051
I  -0.987  -2.896  0.250
I  -0.108  3.161  -1.331
I  -0.384  -0.186  -3.674
I  0.444  0.968  2.182
Zn  -0.854  -0.011  0.147
