   40
step  199
Cs  -4.670  -2.900  -3.194
Cs  2.863  3.405  3.073
Cs  2.931  2.607  -3.497
Cs  -3.223  -2.170  3.677
Cs  3.226  -3.427  2.669
Cs  -3.706  3.082  -3.845
Cs  -3.383  3.288  2.333
Cs  2.215  -3.401  -3.928
Pb  5.715  5.843  -6.353
Pb  -0.652  -6.021  6.723
Pb  -6.498  0.231  5.292
Pb  5.405  -0.435  -0.744
Pb  -0.307  6.266  -0.597
Pb  -0.346  0.163  5.785
Pb  5.593  -6.563  -0.054
I  -3.253  -6.128  5.442
I  2.748  5.447  -5.842
I  5.405  -3.336  6.232
I  -5.901  3.137  -7.697
I  -6.096  -6.643  -3.504
I  5.466  5.793  2.732
I  -3.757  -6.392  0.456
I  2.953  6.888  -1.201
I  -0.008  -3.782  -7.572
I  -0.284  3.260  -6.266
I  5.927  0.776  -3.876
I  -6.790  0.467  2.184
I  6.714  -3.293  0.215
I  -7.065  3.243  -0.880
I  -3.567  -0.346  6.615
I  2.926  -0.339  5.473
I  0.065  -6.397  2.400
I  -1.688  7.361  -3.218
I  -3.489  0.695  -0.594
I  2.319  -0.767  -1.164
I  -1.286  -2.753  0.338
I  -0.620  3.427  -1.960
I  -0.448  -0.654  -3.941
I  -0.349  0.691  2.202
Zn  -1.052  -0.034  -0.285
