   40
step  136
Cs  -3.318  -3.230  -2.858
Cs  3.233  3.090  2.707
Cs  2.738  2.824  -4.093
Cs  -3.688  -3.249  2.762
Cs  2.523  -3.245  2.239
Cs  -2.645  3.419  -3.125
Cs  -2.931  3.773  1.880
Cs  2.786  -3.361  -4.654
Pb  5.562  5.642  -7.161
Pb  -0.917  -6.034  5.882
Pb  -6.834  0.123  5.905
Pb  5.380  0.089  -0.335
Pb  -0.015  6.253  -0.799
Pb  -0.806  0.058  6.264
Pb  5.605  -5.966  -0.583
I  -4.047  -5.976  4.962
I  2.504  5.581  -6.486
I  5.533  -3.372  5.595
I  -5.940  2.374  -5.484
I  -5.718  -6.045  -3.656
I  4.748  6.529  2.406
I  -3.374  -6.397  -0.175
I  2.796  7.549  -1.602
I  0.054  -3.331  -7.629
I  -0.841  2.811  -6.775
I  5.302  -1.606  -3.159
I  -5.788  1.053  3.146
I  5.679  -2.903  0.818
I  -7.278  3.470  -0.753
I  -3.257  -1.819  6.186
I  2.678  0.670  5.327
I  0.029  -6.755  2.745
I  -0.191  6.966  -4.176
I  -4.061  -0.143  -0.703
I  2.537  0.202  0.521
I  -0.946  -2.903  0.580
I  0.257  3.152  -0.830
I  -0.064  -0.066  -3.262
I  -1.348  0.880  2.503
Zn  -1.794  -0.419  0.598
