   40
step  262
Cs  -3.790  -2.654  -3.228
Cs  3.373  3.124  3.414
Cs  2.402  2.792  -3.226
Cs  -4.721  -2.639  2.362
Cs  3.109  -3.126  2.350
Cs  -3.206  3.279  -4.003
Cs  -2.744  2.623  2.491
Cs  2.681  -3.088  -3.770
Pb  5.749  5.749  -6.650
Pb  -0.432  -5.813  5.744
Pb  -6.555  0.785  6.402
Pb  5.524  -0.210  -0.163
Pb  -0.393  6.288  -0.334
Pb  -0.599  0.163  5.954
Pb  5.295  -7.267  -0.025
I  -3.408  -6.339  5.845
I  2.888  5.452  -5.884
I  5.090  -3.019  6.041
I  -5.679  2.771  -7.244
I  -5.731  -6.355  -3.274
I  5.343  6.381  2.154
I  -3.738  -6.129  0.767
I  3.022  6.425  -1.459
I  -0.344  -3.676  -8.136
I  -0.435  2.627  -6.576
I  5.761  0.984  -3.434
I  -6.830  0.345  2.803
I  5.671  -3.188  -0.566
I  -8.561  3.066  -0.219
I  -3.725  -0.577  5.399
I  3.036  1.006  6.364
I  0.385  -7.128  3.059
I  -0.114  7.064  -4.572
I  -3.695  0.517  -0.344
I  2.933  -0.649  -0.934
I  -0.966  -2.939  -1.035
I  -0.690  3.457  -1.317
I  -0.784  0.267  -3.201
I  0.170  0.012  1.875
Zn  -1.139  -0.401  -0.346
