   40
step  422
Cs  -4.157  -2.981  -2.936
Cs  2.656  2.265  3.163
Cs  2.401  3.303  -3.635
Cs  -4.761  -3.094  2.527
Cs  2.058  -2.824  1.175
Cs  -3.248  3.693  -4.691
Cs  -2.242  3.482  2.514
Cs  3.413  -3.509  -3.745
Pb  6.062  5.364  -7.110
Pb  -0.452  -5.450  5.530
Pb  -6.263  0.743  6.641
Pb  5.344  0.042  -0.289
Pb  -0.209  5.939  -0.829
Pb  -1.037  -0.167  6.522
Pb  5.761  -6.976  0.073
I  -3.543  -5.989  4.789
I  3.166  5.197  -6.520
I  5.919  -2.966  6.561
I  -5.570  2.826  -7.748
I  -6.759  -6.815  -3.493
I  5.399  7.029  2.464
I  -3.893  -6.354  0.254
I  3.023  6.581  -1.393
I  0.691  -3.089  -7.540
I  0.279  2.394  -6.485
I  6.291  1.425  -2.918
I  -8.100  -0.396  2.978
I  5.671  -3.918  -0.522
I  -7.113  3.234  1.000
I  -3.370  0.103  4.783
I  3.483  0.565  6.726
I  0.442  -6.914  2.509
I  -0.901  6.931  -4.078
I  -3.799  0.391  0.629
I  1.981  -0.118  -1.677
I  -1.200  -2.917  -0.387
I  -0.287  3.022  -0.923
I  -2.162  0.591  -3.525
I  0.186  0.158  2.656
Zn  -1.564  -0.971  1.070
