   40
step  228
Cs  -4.397  -2.176  -3.114
Cs  3.085  3.048  3.354
Cs  1.832  3.030  -3.482
Cs  -3.554  -2.911  2.917
Cs  2.883  -2.915  2.404
Cs  -3.763  2.877  -4.574
Cs  -2.714  3.502  2.684
Cs  1.766  -3.425  -3.627
Pb  6.457  5.925  -6.531
Pb  -0.833  -5.661  6.391
Pb  -6.535  0.162  5.686
Pb  5.653  -0.814  -0.623
Pb  -0.410  6.236  -0.547
Pb  -0.296  -0.118  5.923
Pb  5.607  -6.784  -0.070
I  -3.343  -6.095  5.079
I  3.155  5.774  -6.414
I  5.513  -2.909  5.839
I  -6.002  2.944  -7.599
I  -5.669  -5.624  -2.704
I  5.565  6.473  2.993
I  -3.647  -6.224  0.965
I  2.915  6.846  -1.306
I  0.194  -3.504  -7.326
I  -0.448  3.122  -6.893
I  5.223  0.349  -3.710
I  -6.623  0.074  2.418
I  6.655  -3.641  0.313
I  -7.521  3.042  -0.402
I  -3.626  -0.522  6.069
I  2.745  0.006  5.890
I  0.170  -7.134  2.630
I  -1.713  7.245  -3.877
I  -3.523  0.530  -0.971
I  2.681  -1.060  -0.509
I  -0.897  -2.724  -0.142
I  -0.964  3.358  -1.651
I  -0.503  -0.400  -3.649
I  -0.268  0.908  1.898
Zn  -1.406  -0.380  -0.082
