   40
step  502
Cs  -3.471  -2.705  -3.473
Cs  3.143  3.681  1.870
Cs  2.931  2.386  -3.068
Cs  -3.963  -2.659  3.106
Cs  1.989  -2.912  2.739
Cs  -3.125  3.068  -4.092
Cs  -3.720  2.947  2.841
Cs  1.885  -3.485  -3.068
Pb  5.601  5.601  -6.657
Pb  -0.727  -6.126  5.744
Pb  -6.907  0.221  5.467
Pb  5.663  -0.635  -0.873
Pb  -0.506  6.113  -0.914
Pb  -0.380  -0.146  5.930
Pb  5.416  -6.691  -0.838
I  -3.916  -6.503  5.643
I  3.101  5.853  -4.761
I  6.820  -3.377  5.907
I  -6.256  3.009  -7.232
I  -5.790  -6.660  -3.258
I  5.395  6.873  2.751
I  -4.594  -6.097  1.149
I  2.452  6.852  -0.368
I  0.369  -3.260  -6.423
I  -0.141  3.261  -5.884
I  5.647  0.320  -4.218
I  -7.310  0.031  2.456
I  7.001  -3.328  -0.721
I  -6.880  3.366  -0.096
I  -3.428  0.419  5.623
I  2.642  1.022  5.377
I  -0.437  -7.063  3.072
I  -0.925  6.614  -3.680
I  -3.686  0.441  -0.993
I  2.669  -0.544  -1.085
I  -0.908  -2.782  0.397
I  -0.160  3.155  -1.428
I  -0.329  -0.309  -3.693
I  0.306  1.109  1.978
Zn  -0.840  -0.051  -0.100
