   40
step  547
Cs  -3.615  -2.834  -3.924
Cs  2.813  3.025  1.823
Cs  2.472  2.919  -3.590
Cs  -4.675  -3.378  3.060
Cs  2.686  -2.263  2.344
Cs  -3.206  2.844  -4.173
Cs  -3.764  2.773  2.593
Cs  2.332  -3.199  -3.311
Pb  5.658  5.950  -7.023
Pb  -0.767  -6.210  6.106
Pb  -6.527  0.549  6.000
Pb  5.735  -1.021  -0.587
Pb  -0.516  6.340  -0.472
Pb  -0.245  0.176  6.218
Pb  5.345  -6.861  -0.943
I  -3.684  -6.221  5.521
I  2.884  6.191  -5.456
I  5.586  -2.805  7.303
I  -7.056  3.969  -7.475
I  -5.604  -6.277  -3.212
I  5.104  7.053  2.520
I  -4.196  -6.538  1.324
I  3.029  6.239  -0.753
I  0.035  -3.189  -7.315
I  -0.062  2.907  -6.374
I  5.871  0.576  -3.822
I  -5.772  -0.249  2.762
I  7.119  -3.675  -1.050
I  -6.984  3.398  -0.449
I  -3.464  0.048  5.561
I  2.840  0.408  4.970
I  -0.847  -7.229  3.329
I  -0.277  7.234  -3.448
I  -3.308  -0.066  -1.293
I  2.744  -0.450  -0.829
I  -1.098  -3.159  0.584
I  -0.711  3.546  -1.449
I  -0.210  -0.069  -3.477
I  -0.033  0.459  2.409
Zn  -1.731  -0.434  0.703
