   40
step  382
Cs  -3.582  -4.347  -3.520
Cs  2.760  2.260  3.645
Cs  3.143  2.896  -3.084
Cs  -4.571  -3.050  2.503
Cs  2.085  -3.434  2.463
Cs  -3.329  4.739  -4.384
Cs  -3.204  3.262  2.868
Cs  2.728  -3.663  -3.982
Pb  6.240  5.976  -7.144
Pb  -0.147  -5.797  5.777
Pb  -6.003  1.312  6.927
Pb  5.686  -0.498  -0.390
Pb  -0.535  5.954  -1.255
Pb  -1.000  0.347  7.002
Pb  5.394  -7.307  0.087
I  -3.537  -5.471  4.958
I  3.241  5.514  -5.939
I  6.362  -2.885  6.258
I  -5.642  2.940  -7.165
I  -6.647  -5.809  -3.573
I  4.904  6.671  2.270
I  -3.982  -6.276  0.124
I  2.957  6.854  -1.461
I  0.942  -3.494  -6.853
I  -0.915  2.827  -6.846
I  6.916  2.021  -2.856
I  -7.485  -0.508  2.651
I  6.372  -3.543  -1.030
I  -7.687  2.857  0.613
I  -3.352  0.035  4.862
I  3.459  0.409  6.890
I  0.169  -7.207  2.280
I  0.130  6.752  -4.116
I  -3.833  0.842  -0.000
I  2.074  -0.642  -1.950
I  -1.057  -3.050  -0.201
I  -0.745  3.078  -2.252
I  -3.083  -0.662  -3.582
I  -0.196  0.476  2.313
Zn  -1.824  -0.603  0.568
