   40
step  848
Cs  -3.884  -3.393  -3.920
Cs  3.611  3.461  2.379
Cs  2.987  2.991  -3.218
Cs  -4.676  -3.452  3.376
Cs  2.070  -2.050  2.397
Cs  -3.463  3.455  -4.318
Cs  -3.531  2.472  2.017
Cs  2.597  -2.351  -3.244
Pb  5.884  5.934  -6.465
Pb  -0.049  -5.887  6.106
Pb  -6.635  -0.129  6.286
Pb  5.706  -0.811  -0.662
Pb  0.426  6.076  -0.618
Pb  -0.372  0.310  5.905
Pb  5.639  -6.564  -0.545
I  -3.399  -5.747  5.876
I  3.092  5.122  -5.729
I  4.656  -3.772  6.174
I  -5.638  3.807  -7.089
I  -6.525  -6.033  -3.518
I  4.584  6.958  1.943
I  -3.608  -6.295  1.128
I  3.146  6.550  -1.856
I  -0.402  -2.805  -5.528
I  -1.248  3.062  -7.612
I  5.358  0.754  -3.689
I  -6.937  0.187  2.846
I  6.819  -3.556  -0.993
I  -6.424  3.483  -0.464
I  -3.834  -0.837  5.891
I  2.493  0.401  5.175
I  0.672  -5.264  3.221
I  -0.814  4.639  -2.607
I  -3.775  0.411  -1.736
I  2.703  0.218  -0.470
I  -0.840  -3.102  -1.313
I  0.573  3.234  0.362
I  -0.264  0.643  -3.706
I  -1.955  -0.826  2.257
Zn  -2.419  -1.304  -0.308
