   40
step    4
Cs  -3.124  -3.302  -3.718
Cs  2.647  3.930  2.487
Cs  2.775  2.753  -3.161
Cs  -3.973  -3.262  2.656
Cs  2.613  -2.292  3.758
Cs  -2.812  3.682  -2.866
Cs  -3.636  3.824  2.298
Cs  2.283  -3.413  -3.991
Pb  5.824  4.440  -6.203
Pb  -0.840  -6.090  5.452
Pb  -6.540  -0.104  5.550
Pb  5.430  -0.227  -0.944
Pb  -0.004  6.224  -0.548
Pb  -0.862  1.122  5.885
Pb  5.824  -5.503  -0.434
I  -3.983  -5.588  5.211
I  2.995  4.809  -6.367
I  5.392  -3.093  5.461
I  -5.822  2.295  -4.095
I  -6.206  -5.670  -4.181
I  5.583  5.969  2.307
I  -3.211  -6.025  -0.113
I  3.023  5.834  -1.589
I  -0.106  -3.139  -6.712
I  -2.571  3.695  -6.506
I  5.450  -1.330  -3.629
I  -5.921  0.507  2.456
I  5.227  -2.744  0.720
I  -6.456  2.825  -0.627
I  -3.302  -0.874  5.679
I  2.531  1.002  5.629
I  0.541  -5.331  2.385
I  -0.397  5.985  -4.035
I  -3.379  -0.461  -1.062
I  2.407  -0.431  0.133
I  0.042  -2.833  -1.420
I  -0.676  3.346  -0.014
I  -0.516  0.714  -3.763
I  -1.113  -0.708  2.493
Zn  -1.115  -1.052  -0.010
