   40
step  561
Cs  -3.923  -2.855  -4.193
Cs  2.465  2.699  1.846
Cs  2.564  2.848  -3.429
Cs  -4.176  -3.776  3.154
Cs  2.420  -2.624  2.196
Cs  -3.103  3.239  -4.351
Cs  -3.644  3.187  2.864
Cs  1.768  -3.249  -3.182
Pb  5.749  5.990  -6.955
Pb  -0.432  -5.698  6.164
Pb  -6.677  0.795  6.055
Pb  5.975  -0.359  -0.574
Pb  -0.213  6.031  -0.676
Pb  -0.345  0.087  5.999
Pb  5.566  -6.573  -0.794
I  -3.842  -6.242  5.753
I  3.046  5.976  -5.720
I  5.286  -2.794  7.055
I  -6.543  3.579  -7.544
I  -5.858  -6.284  -3.423
I  5.295  6.955  2.795
I  -4.556  -6.490  1.009
I  2.858  5.973  -0.966
I  -0.098  -3.614  -7.494
I  -0.033  2.843  -6.296
I  5.830  0.997  -3.841
I  -5.911  -0.335  2.635
I  6.539  -3.943  -0.695
I  -7.241  3.299  -0.030
I  -3.346  -0.441  5.659
I  2.979  0.528  5.125
I  -0.151  -6.923  2.841
I  -0.451  7.366  -3.718
I  -3.263  0.165  -1.042
I  2.812  -0.345  -1.200
I  -1.140  -3.123  0.930
I  -0.771  3.097  -1.038
I  0.120  -0.235  -3.479
I  -0.579  0.459  2.666
Zn  -1.553  -0.690  0.596
