   40
step  373
Cs  -3.456  -3.980  -3.702
Cs  2.763  2.063  3.840
Cs  2.685  2.682  -3.153
Cs  -4.520  -3.216  2.420
Cs  2.095  -3.370  2.237
Cs  -3.067  4.664  -4.411
Cs  -3.365  3.559  2.971
Cs  2.916  -3.484  -3.864
Pb  6.189  5.946  -7.303
Pb  -0.114  -5.829  5.920
Pb  -5.778  1.160  7.032
Pb  5.554  -0.400  -0.327
Pb  -0.573  5.828  -1.100
Pb  -1.020  0.478  6.907
Pb  5.132  -7.188  0.028
I  -3.447  -5.635  5.362
I  3.068  5.513  -5.977
I  6.216  -2.700  6.305
I  -5.583  3.101  -7.188
I  -6.772  -5.971  -3.597
I  5.099  6.551  2.242
I  -3.926  -6.181  0.112
I  3.005  6.691  -1.507
I  0.544  -3.414  -7.037
I  -0.662  2.943  -6.710
I  6.914  1.902  -2.861
I  -7.363  -0.582  2.295
I  6.576  -3.160  -0.889
I  -7.725  2.903  0.477
I  -3.241  0.054  4.747
I  3.313  0.370  7.080
I  0.083  -7.454  2.466
I  0.146  6.718  -4.227
I  -3.798  0.860  -0.134
I  2.114  -0.542  -1.615
I  -1.160  -3.185  -0.169
I  -0.748  3.027  -2.188
I  -2.992  -0.807  -3.495
I  -0.055  0.498  1.948
Zn  -1.562  -0.696  0.342
