   40
step  221
Cs  -4.358  -2.476  -3.340
Cs  3.048  3.169  3.320
Cs  2.150  2.921  -3.476
Cs  -3.335  -2.507  2.841
Cs  3.060  -3.143  2.488
Cs  -3.822  2.852  -4.441
Cs  -2.832  3.394  2.664
Cs  1.730  -3.516  -3.599
Pb  6.340  5.977  -6.476
Pb  -0.764  -5.629  6.675
Pb  -6.445  0.175  5.675
Pb  5.643  -0.814  -0.715
Pb  -0.440  6.280  -0.646
Pb  -0.362  -0.007  5.888
Pb  5.593  -6.641  -0.092
I  -3.445  -6.195  5.220
I  3.178  5.797  -6.378
I  5.559  -3.206  5.946
I  -6.079  3.057  -7.517
I  -5.731  -5.697  -2.767
I  5.481  6.397  2.926
I  -3.660  -6.190  0.601
I  3.054  6.802  -1.272
I  0.291  -3.356  -7.343
I  -0.409  2.884  -6.824
I  5.329  0.421  -3.989
I  -6.636  0.045  2.317
I  6.768  -3.587  0.384
I  -7.377  3.172  -0.575
I  -3.479  -0.547  6.352
I  2.481  -0.188  5.848
I  0.116  -6.916  2.528
I  -1.896  7.249  -3.667
I  -3.619  0.552  -1.078
I  2.452  -0.993  -0.655
I  -1.024  -2.826  0.043
I  -0.972  3.534  -1.726
I  -0.436  -0.649  -3.696
I  -0.114  0.920  1.931
Zn  -1.713  -0.260  0.523
