   40
step  332
Cs  -3.514  -3.088  -4.371
Cs  3.452  2.001  3.902
Cs  2.486  2.973  -3.044
Cs  -4.425  -2.801  2.588
Cs  2.019  -3.249  2.006
Cs  -3.206  3.819  -4.386
Cs  -3.507  3.711  2.315
Cs  3.624  -3.937  -3.293
Pb  6.138  5.596  -6.835
Pb  -0.239  -5.234  5.743
Pb  -5.914  0.865  7.040
Pb  5.567  0.121  -0.294
Pb  0.016  5.597  0.290
Pb  -0.968  0.137  5.988
Pb  5.219  -7.436  0.076
I  -3.377  -5.779  5.123
I  3.294  4.839  -6.983
I  5.603  -3.147  5.892
I  -5.642  2.566  -7.302
I  -6.049  -5.924  -3.533
I  5.447  7.245  1.717
I  -4.103  -6.683  -0.284
I  2.533  6.227  -1.531
I  -0.711  -3.352  -8.608
I  0.440  2.076  -6.178
I  6.133  2.395  -2.751
I  -7.647  -0.565  2.294
I  6.531  -2.334  -1.589
I  -8.794  3.307  0.093
I  -3.548  0.627  4.774
I  3.569  0.127  7.286
I  0.170  -7.625  3.668
I  -0.375  7.126  -4.472
I  -3.983  0.231  0.871
I  2.646  -0.636  -1.787
I  -1.450  -2.658  -0.464
I  -0.559  2.902  -0.715
I  -2.106  0.020  -3.780
I  0.071  0.561  2.564
Zn  -1.762  -0.724  1.107
