   40
step   92
Cs  -3.222  -2.702  -2.042
Cs  3.519  2.610  3.214
Cs  1.593  3.324  -4.081
Cs  -3.705  -2.330  3.514
Cs  2.742  -2.470  2.620
Cs  -3.573  3.789  -4.184
Cs  -3.321  3.436  1.751
Cs  2.103  -3.293  -4.318
Pb  6.420  5.082  -6.505
Pb  -0.662  -6.083  5.487
Pb  -7.062  -0.243  5.940
Pb  5.237  0.118  -0.618
Pb  -0.345  6.443  -0.718
Pb  -1.484  -0.210  6.133
Pb  5.691  -6.271  -0.194
I  -3.340  -5.762  4.506
I  3.438  5.162  -6.879
I  5.424  -3.049  5.012
I  -6.852  2.107  -4.917
I  -6.052  -5.293  -4.414
I  6.223  5.630  2.476
I  -3.702  -6.364  -0.720
I  2.638  7.009  -1.577
I  -0.065  -3.613  -7.712
I  -0.980  2.494  -6.813
I  5.295  -1.567  -2.802
I  -5.624  1.189  3.387
I  6.674  -2.598  0.752
I  -7.113  3.295  -1.059
I  -3.915  -1.540  7.062
I  2.331  0.389  6.288
I  0.814  -6.575  2.433
I  -0.909  6.438  -4.357
I  -2.923  0.654  -0.697
I  2.239  0.765  0.039
I  -0.181  -2.715  0.051
I  -0.732  3.553  -1.137
I  -0.314  -0.450  -3.637
I  -0.753  0.400  2.789
Zn  -0.580  -0.265  0.130
