   40
step  954
Cs  -2.993  -3.637  -3.839
Cs  2.857  2.112  2.813
Cs  1.812  2.853  -3.346
Cs  -4.024  -2.823  3.671
Cs  3.290  -3.182  2.396
Cs  -4.646  3.296  -4.028
Cs  -3.330  3.612  2.437
Cs  2.906  -3.261  -3.317
Pb  5.683  5.616  -6.918
Pb  -0.715  -6.006  5.697
Pb  -6.846  0.382  6.010
Pb  6.067  0.091  -1.450
Pb  -0.686  6.497  -0.620
Pb  -0.953  -0.020  5.901
Pb  6.036  -6.355  -0.526
I  -3.716  -6.048  5.490
I  2.846  4.373  -6.558
I  5.408  -2.957  6.320
I  -6.016  3.115  -7.750
I  -6.444  -4.982  -3.167
I  5.766  6.752  2.659
I  -3.354  -7.476  -1.136
I  3.079  6.314  -0.951
I  -0.224  -3.500  -5.952
I  -0.778  2.822  -6.623
I  4.261  0.223  -3.776
I  -6.405  -0.308  2.928
I  7.940  -2.839  -0.040
I  -7.307  3.314  -0.762
I  -3.802  0.081  7.553
I  2.353  -0.586  5.332
I  -0.872  -4.325  2.527
I  0.190  5.955  -3.708
I  -3.187  1.128  -1.128
I  3.003  -0.599  -0.606
I  -0.269  -2.592  -0.678
I  0.574  4.205  1.084
I  -0.185  -0.585  -3.825
I  -1.331  -0.125  2.824
Zn  -2.377  -1.201  0.171
