   40
step  674
Cs  -3.497  -3.152  -3.291
Cs  3.091  3.439  2.985
Cs  2.679  2.912  -3.761
Cs  -4.000  -2.843  2.864
Cs  3.264  -2.605  2.655
Cs  -3.369  2.702  -3.646
Cs  -3.370  3.057  2.077
Cs  1.512  -2.986  -4.438
Pb  6.090  5.612  -6.299
Pb  -0.509  -6.047  5.940
Pb  -6.830  0.418  5.776
Pb  5.268  -0.828  -0.523
Pb  0.361  6.523  -0.604
Pb  -1.082  -0.006  5.541
Pb  5.751  -6.318  0.228
I  -3.671  -5.500  5.294
I  3.223  5.277  -6.431
I  5.526  -3.623  7.034
I  -5.525  2.865  -7.261
I  -5.832  -7.022  -3.103
I  5.878  6.145  2.957
I  -3.616  -6.036  0.058
I  3.247  6.873  -1.926
I  -0.448  -3.043  -7.796
I  -1.280  3.596  -7.224
I  5.675  0.607  -3.732
I  -6.519  0.094  2.670
I  6.214  -3.633  -1.371
I  -7.202  3.572  0.079
I  -4.099  -0.872  6.183
I  1.919  0.721  6.140
I  1.132  -6.128  2.602
I  -1.247  6.336  -3.544
I  -3.214  0.436  -0.498
I  2.231  -0.763  -0.914
I  -1.480  -3.084  0.483
I  -0.429  3.488  -0.479
I  -1.016  -0.157  -3.590
I  0.142  0.637  2.564
Zn  -1.015  -0.542  0.291
