   40
step  189
Cs  -4.863  -2.858  -3.170
Cs  2.544  3.232  2.873
Cs  2.711  2.499  -3.481
Cs  -3.391  -2.535  3.828
Cs  3.068  -3.267  2.690
Cs  -3.348  3.148  -3.661
Cs  -3.413  3.212  2.211
Cs  2.483  -3.161  -4.313
Pb  5.476  5.902  -6.534
Pb  -0.777  -6.215  6.754
Pb  -6.646  0.147  5.297
Pb  5.459  -0.174  -0.800
Pb  -0.175  6.072  -0.532
Pb  -0.121  0.212  5.765
Pb  5.731  -6.461  -0.330
I  -3.435  -6.073  5.296
I  2.825  5.107  -5.750
I  5.379  -3.427  6.355
I  -5.787  3.206  -7.640
I  -6.136  -7.019  -3.414
I  5.490  5.714  2.828
I  -3.864  -6.339  0.555
I  2.687  7.007  -1.248
I  0.033  -3.397  -7.712
I  -0.348  3.008  -6.183
I  6.207  0.544  -3.795
I  -6.947  0.834  2.218
I  6.532  -3.307  0.351
I  -6.952  3.083  -0.690
I  -3.553  -0.047  6.794
I  2.751  -0.188  5.264
I  0.163  -6.429  2.558
I  -1.576  7.591  -3.322
I  -3.327  0.774  -0.464
I  2.110  -0.626  -1.178
I  -1.162  -2.734  0.188
I  -0.053  3.293  -1.815
I  -0.342  -0.527  -3.884
I  -0.499  0.715  2.245
Zn  -0.766  -0.396  -0.193
