   40
step  930
Cs  -3.759  -3.824  -4.039
Cs  3.457  2.274  2.605
Cs  1.950  3.161  -2.662
Cs  -4.015  -3.032  3.797
Cs  2.372  -3.205  2.279
Cs  -3.900  3.395  -4.248
Cs  -2.815  3.312  2.512
Cs  1.909  -3.158  -3.427
Pb  5.553  6.015  -6.701
Pb  -0.347  -6.151  5.372
Pb  -6.702  0.324  5.598
Pb  6.062  -0.114  -0.988
Pb  -0.401  6.725  -0.689
Pb  -0.620  0.138  5.911
Pb  6.085  -6.129  0.042
I  -3.372  -6.349  5.886
I  2.817  4.682  -6.662
I  5.218  -3.324  6.586
I  -5.948  2.846  -7.375
I  -6.575  -6.096  -3.325
I  5.368  6.089  2.612
I  -3.807  -7.219  -0.316
I  3.165  7.061  -0.830
I  -0.470  -3.694  -5.995
I  -0.398  2.808  -6.394
I  4.205  0.270  -4.061
I  -6.011  0.200  2.401
I  8.269  -3.054  -0.353
I  -6.939  3.267  -1.014
I  -4.147  0.046  7.565
I  2.106  -0.506  4.868
I  -0.782  -4.696  2.748
I  -0.846  6.118  -3.910
I  -3.261  1.340  -1.094
I  3.375  -0.580  0.149
I  -0.081  -2.686  -0.659
I  0.054  3.818  0.237
I  -0.146  0.235  -3.887
I  -1.307  -0.205  2.329
Zn  -2.301  -1.091  -0.241
