   40
step  159
Cs  -4.158  -3.106  -3.120
Cs  2.761  3.070  2.330
Cs  2.899  1.931  -4.072
Cs  -3.964  -3.300  3.002
Cs  2.394  -3.228  2.135
Cs  -2.495  2.927  -3.165
Cs  -3.694  3.283  2.410
Cs  2.296  -2.993  -4.391
Pb  5.498  5.732  -7.001
Pb  -1.064  -5.862  6.001
Pb  -6.637  0.206  5.517
Pb  5.352  -0.115  -0.308
Pb  0.002  6.187  -0.449
Pb  -0.561  -0.249  5.807
Pb  5.677  -6.036  -0.685
I  -3.828  -6.448  5.036
I  2.738  5.176  -6.283
I  6.032  -3.148  5.923
I  -5.385  2.903  -5.825
I  -5.810  -6.864  -3.293
I  4.609  6.227  2.261
I  -3.652  -5.909  0.239
I  2.806  7.738  -1.636
I  0.037  -3.603  -7.502
I  -0.695  3.318  -6.467
I  5.909  -0.433  -3.586
I  -6.490  1.267  2.514
I  5.880  -2.779  0.858
I  -7.017  3.636  -0.451
I  -3.722  -0.492  6.147
I  2.772  0.336  5.276
I  -0.016  -6.544  2.868
I  -0.948  7.679  -3.912
I  -2.993  -0.052  -1.098
I  2.294  -0.287  0.172
I  -0.895  -3.223  0.407
I  0.540  3.219  -0.368
I  -0.180  -0.100  -3.752
I  -0.613  0.541  2.775
Zn  -1.405  -0.881  0.575
