   40
step  796
Cs  -3.258  -3.412  -3.787
Cs  2.663  3.599  2.243
Cs  2.172  3.173  -2.606
Cs  -3.583  -2.560  2.678
Cs  2.199  -2.874  3.428
Cs  -3.720  2.877  -4.333
Cs  -3.097  3.188  2.714
Cs  3.086  -3.039  -3.449
Pb  6.199  6.019  -7.013
Pb  -0.222  -6.489  6.378
Pb  -6.928  0.636  5.952
Pb  5.176  -0.454  -1.005
Pb  0.272  6.208  0.232
Pb  -0.264  0.045  5.601
Pb  5.625  -6.651  -0.667
I  -3.695  -5.545  5.176
I  2.773  4.381  -6.292
I  4.847  -3.513  5.667
I  -6.488  3.376  -7.608
I  -5.792  -6.176  -3.334
I  5.498  6.545  2.429
I  -3.881  -6.559  0.573
I  3.447  6.575  -1.208
I  0.228  -3.132  -5.718
I  -0.982  3.284  -7.258
I  5.806  0.700  -4.247
I  -6.292  0.345  2.298
I  6.341  -3.336  -1.751
I  -7.253  3.592  -0.083
I  -3.545  -0.414  5.759
I  2.755  0.552  6.808
I  -0.343  -5.184  3.316
I  -1.156  5.802  -3.521
I  -3.417  0.338  -0.698
I  2.245  -0.961  0.125
I  -0.487  -3.307  -1.092
I  -0.444  3.240  -0.100
I  -0.933  0.598  -4.062
I  -0.845  -0.482  2.547
Zn  -1.510  -1.157  0.110
