   40
step  897
Cs  -4.160  -3.869  -3.965
Cs  3.477  2.528  2.302
Cs  2.866  3.301  -2.972
Cs  -4.516  -2.778  3.703
Cs  1.988  -3.024  2.734
Cs  -3.302  2.718  -3.900
Cs  -3.029  2.859  2.928
Cs  2.273  -2.389  -4.177
Pb  6.065  5.668  -6.677
Pb  -0.169  -6.220  5.394
Pb  -6.857  0.219  5.772
Pb  6.059  0.005  -0.522
Pb  0.046  6.056  -0.384
Pb  -0.299  0.120  5.777
Pb  5.946  -6.003  -0.108
I  -3.688  -6.018  5.455
I  2.764  4.663  -6.362
I  4.994  -3.140  6.170
I  -5.873  3.074  -7.685
I  -6.565  -7.410  -3.590
I  4.656  6.956  2.252
I  -4.273  -6.854  0.965
I  3.058  7.479  -1.489
I  -1.058  -3.230  -6.395
I  -0.985  3.342  -6.981
I  4.982  0.355  -3.653
I  -5.533  0.218  2.446
I  7.465  -3.111  0.032
I  -6.514  3.520  -0.486
I  -3.779  -0.237  6.233
I  2.451  0.451  4.696
I  -1.383  -5.039  2.498
I  -0.721  6.141  -3.424
I  -3.070  0.800  -0.898
I  3.060  -0.299  -0.291
I  -0.723  -2.727  -1.052
I  0.406  3.300  0.795
I  -0.032  0.445  -3.791
I  -1.426  -1.038  2.761
Zn  -2.368  -1.361  0.373
