   40
step  988
Cs  -2.814  -3.698  -3.591
Cs  3.171  2.002  2.620
Cs  1.020  2.924  -2.910
Cs  -3.953  -2.403  3.800
Cs  2.367  -3.101  2.878
Cs  -4.736  3.616  -4.474
Cs  -3.198  3.351  1.669
Cs  2.696  -3.210  -3.453
Pb  5.468  5.554  -7.418
Pb  -0.256  -6.248  5.351
Pb  -6.888  -0.097  5.594
Pb  6.076  -0.354  -0.854
Pb  -0.115  6.495  -0.159
Pb  -0.950  0.102  5.983
Pb  5.824  -6.447  -0.449
I  -3.377  -5.824  6.634
I  2.523  4.362  -6.833
I  5.288  -3.341  5.618
I  -6.168  3.402  -8.226
I  -6.210  -5.217  -3.286
I  6.414  6.533  2.488
I  -3.105  -7.119  -1.101
I  3.327  6.894  -0.713
I  0.810  -4.004  -6.504
I  -1.949  2.891  -6.583
I  5.152  0.687  -3.875
I  -6.237  0.141  2.512
I  7.573  -3.141  -0.082
I  -7.135  3.509  -0.208
I  -3.974  -0.468  7.032
I  2.413  0.036  5.489
I  -1.057  -4.422  2.783
I  0.289  6.271  -3.324
I  -3.256  0.995  -1.599
I  2.726  -0.621  -0.503
I  -0.382  -2.237  0.055
I  0.225  3.901  1.721
I  -0.269  -0.700  -3.847
I  -1.626  0.071  2.718
Zn  -2.422  -0.839  0.224
