   40
step  423
Cs  -4.183  -2.961  -2.933
Cs  2.657  2.227  3.171
Cs  2.384  3.282  -3.669
Cs  -4.758  -3.118  2.546
Cs  2.075  -2.840  1.142
Cs  -3.234  3.712  -4.691
Cs  -2.233  3.459  2.531
Cs  3.362  -3.502  -3.727
Pb  6.076  5.332  -7.123
Pb  -0.467  -5.443  5.555
Pb  -6.287  0.725  6.603
Pb  5.345  0.055  -0.272
Pb  -0.210  5.937  -0.840
Pb  -1.013  -0.166  6.493
Pb  5.760  -6.948  0.067
I  -3.558  -5.984  4.803
I  3.146  5.235  -6.514
I  5.938  -2.981  6.555
I  -5.542  2.828  -7.758
I  -6.731  -6.832  -3.474
I  5.377  7.040  2.466
I  -3.873  -6.326  0.248
I  3.006  6.574  -1.417
I  0.699  -3.093  -7.557
I  0.314  2.368  -6.489
I  6.280  1.425  -2.934
I  -8.096  -0.387  3.004
I  5.675  -3.900  -0.510
I  -7.080  3.236  1.006
I  -3.368  0.118  4.746
I  3.473  0.559  6.762
I  0.447  -6.901  2.525
I  -0.924  6.924  -4.063
I  -3.815  0.425  0.637
I  1.959  -0.119  -1.656
I  -1.207  -2.956  -0.409
I  -0.290  3.035  -0.855
I  -2.122  0.608  -3.513
I  0.193  0.167  2.634
Zn  -1.576  -0.971  1.053
