   40
step  242
Cs  -4.332  -2.029  -2.895
Cs  3.247  2.903  3.305
Cs  1.869  3.183  -3.752
Cs  -3.970  -3.205  3.057
Cs  2.712  -2.832  2.561
Cs  -3.551  2.930  -4.576
Cs  -2.788  3.186  2.597
Cs  2.041  -3.234  -3.731
Pb  6.210  5.752  -6.619
Pb  -0.648  -5.881  6.150
Pb  -6.600  0.542  5.822
Pb  5.803  -0.597  -0.398
Pb  -0.440  6.041  -0.478
Pb  -0.320  -0.035  5.839
Pb  5.536  -7.029  0.018
I  -3.561  -5.940  4.964
I  3.122  5.631  -6.173
I  5.252  -3.049  5.751
I  -5.741  2.870  -7.694
I  -5.680  -5.861  -3.000
I  5.654  6.657  2.729
I  -3.545  -6.323  1.329
I  2.763  6.803  -1.302
I  0.066  -3.453  -7.682
I  -0.433  2.938  -6.694
I  5.212  0.419  -3.453
I  -6.613  0.263  2.824
I  6.178  -3.570  0.113
I  -7.946  2.885  -0.035
I  -3.345  -0.658  5.501
I  2.710  0.509  5.981
I  0.424  -7.306  2.829
I  -1.084  7.260  -4.270
I  -3.570  0.822  -0.622
I  2.732  -0.963  -0.655
I  -0.611  -2.906  -0.535
I  -1.177  3.349  -1.279
I  -0.614  0.125  -3.506
I  -0.326  0.611  1.934
Zn  -0.869  -0.173  -0.646
