   40
step  986
Cs  -2.807  -3.725  -3.580
Cs  3.131  1.986  2.665
Cs  1.037  2.890  -2.961
Cs  -3.947  -2.342  3.786
Cs  2.459  -3.066  2.877
Cs  -4.783  3.547  -4.437
Cs  -3.145  3.360  1.670
Cs  2.694  -3.238  -3.452
Pb  5.468  5.571  -7.391
Pb  -0.256  -6.249  5.339
Pb  -6.893  -0.110  5.591
Pb  6.117  -0.333  -0.861
Pb  -0.167  6.509  -0.191
Pb  -0.963  0.106  5.981
Pb  5.848  -6.451  -0.438
I  -3.401  -5.770  6.605
I  2.514  4.346  -6.809
I  5.360  -3.360  5.584
I  -6.235  3.414  -8.218
I  -6.159  -5.153  -3.234
I  6.392  6.516  2.429
I  -3.096  -7.099  -1.098
I  3.290  6.830  -0.773
I  0.757  -3.948  -6.476
I  -1.882  2.970  -6.620
I  5.136  0.716  -3.842
I  -6.347  0.122  2.444
I  7.491  -3.145  -0.090
I  -7.157  3.476  -0.246
I  -3.954  -0.390  7.039
I  2.395  -0.020  5.479
I  -1.015  -4.467  2.763
I  0.294  6.256  -3.257
I  -3.212  1.023  -1.544
I  2.741  -0.606  -0.426
I  -0.389  -2.323  0.034
I  0.273  3.912  1.725
I  -0.195  -0.704  -3.795
I  -1.662  0.050  2.737
Zn  -2.467  -0.901  0.145
