   40
step  311
Cs  -3.527  -3.455  -4.854
Cs  3.207  2.432  4.242
Cs  2.211  2.757  -3.432
Cs  -4.862  -2.848  2.588
Cs  2.208  -3.127  1.646
Cs  -2.332  4.011  -4.491
Cs  -3.389  3.451  2.251
Cs  3.023  -4.155  -3.894
Pb  6.390  5.436  -7.062
Pb  -0.503  -5.075  5.723
Pb  -6.441  1.286  7.480
Pb  5.185  0.426  -0.269
Pb  -0.310  6.050  0.077
Pb  -0.801  -0.124  6.007
Pb  5.293  -7.366  0.168
I  -3.433  -6.078  5.253
I  3.411  5.235  -6.264
I  5.598  -3.089  5.877
I  -5.461  2.589  -7.122
I  -6.080  -6.014  -3.449
I  5.450  6.858  1.664
I  -3.696  -6.852  0.212
I  2.770  6.476  -1.439
I  -0.913  -4.003  -9.085
I  0.221  1.921  -6.332
I  6.514  2.301  -2.674
I  -7.760  -0.624  2.425
I  6.631  -2.039  -2.198
I  -8.859  3.359  0.339
I  -3.586  -0.047  5.047
I  3.164  -0.154  6.616
I  0.166  -7.525  3.694
I  -0.146  6.943  -4.504
I  -3.584  0.405  0.780
I  2.311  -0.579  -1.522
I  -0.773  -2.665  -0.182
I  -0.305  3.144  -0.496
I  -1.610  -0.180  -3.641
I  -0.077  0.875  2.810
Zn  -1.395  -0.609  1.213
