   40
step  398
Cs  -3.584  -3.791  -3.306
Cs  2.649  2.759  3.585
Cs  3.375  3.257  -2.956
Cs  -4.716  -2.647  2.419
Cs  1.950  -3.165  2.014
Cs  -3.303  4.131  -4.615
Cs  -2.699  3.113  2.355
Cs  3.176  -3.615  -3.647
Pb  6.268  6.027  -6.885
Pb  -0.233  -5.858  5.483
Pb  -6.074  0.904  7.080
Pb  5.431  -0.676  -0.375
Pb  -0.209  5.907  -0.989
Pb  -1.054  0.162  6.824
Pb  5.436  -7.308  0.104
I  -3.337  -5.601  4.600
I  3.090  5.011  -6.496
I  6.403  -2.965  6.098
I  -5.929  3.296  -7.617
I  -6.900  -6.100  -3.461
I  5.163  6.502  2.277
I  -3.907  -6.540  0.202
I  2.899  6.750  -1.133
I  0.867  -3.309  -6.942
I  -0.849  2.550  -6.535
I  6.537  1.957  -2.600
I  -7.598  -0.460  2.517
I  5.903  -3.420  -0.873
I  -7.462  3.008  0.649
I  -3.473  -0.175  5.107
I  3.425  0.601  6.405
I  0.334  -6.964  2.407
I  -0.153  6.961  -4.552
I  -3.930  0.469  0.260
I  2.461  -0.518  -1.983
I  -1.125  -2.818  -0.300
I  -0.607  3.222  -1.985
I  -3.059  -0.233  -3.413
I  -0.237  0.315  2.922
Zn  -1.612  -0.408  0.858
