   40
step  844
Cs  -3.810  -3.374  -3.815
Cs  3.612  3.393  2.450
Cs  2.944  3.005  -3.289
Cs  -4.791  -3.569  3.305
Cs  2.086  -1.995  2.439
Cs  -3.447  3.710  -4.435
Cs  -3.630  2.356  1.940
Cs  2.570  -2.377  -3.161
Pb  5.925  5.924  -6.534
Pb  -0.015  -5.904  6.192
Pb  -6.650  -0.153  6.232
Pb  5.660  -0.717  -0.694
Pb  0.376  6.019  -0.607
Pb  -0.393  0.243  5.872
Pb  5.650  -6.687  -0.507
I  -3.452  -5.751  5.770
I  3.024  5.105  -5.562
I  4.681  -3.769  6.128
I  -5.711  3.827  -7.004
I  -6.579  -5.996  -3.436
I  4.723  6.871  1.942
I  -3.515  -6.153  1.045
I  3.174  6.508  -1.876
I  -0.395  -2.815  -5.562
I  -1.126  3.122  -7.728
I  5.313  0.740  -3.743
I  -6.923  0.166  2.785
I  6.811  -3.553  -1.025
I  -6.397  3.356  -0.385
I  -3.795  -0.704  5.822
I  2.520  0.585  5.208
I  0.625  -5.335  3.296
I  -0.957  4.658  -2.677
I  -3.822  0.324  -1.716
I  2.822  0.238  -0.425
I  -0.799  -2.949  -1.204
I  0.601  3.219  0.556
I  -0.322  0.594  -3.604
I  -1.882  -0.768  2.131
Zn  -2.280  -1.237  -0.404
