   40
step   55
Cs  -3.842  -3.765  -2.945
Cs  3.129  2.983  2.508
Cs  1.930  3.146  -3.943
Cs  -3.545  -1.925  3.091
Cs  2.316  -2.583  1.993
Cs  -3.251  3.516  -3.202
Cs  -2.959  3.515  2.230
Cs  2.806  -3.970  -4.925
Pb  6.610  4.936  -6.232
Pb  -0.492  -5.980  5.331
Pb  -7.162  -0.047  5.936
Pb  5.356  -0.050  -0.571
Pb  -0.092  6.491  -0.180
Pb  -1.198  0.053  5.958
Pb  5.677  -6.099  0.348
I  -3.307  -5.823  3.992
I  3.045  5.246  -6.294
I  4.987  -3.187  5.361
I  -6.360  2.446  -5.032
I  -5.951  -6.323  -3.932
I  4.939  5.828  3.030
I  -3.878  -5.924  0.277
I  2.492  6.310  -2.060
I  0.303  -3.267  -7.795
I  -2.062  2.794  -6.679
I  5.237  -1.486  -3.316
I  -6.202  1.200  3.271
I  5.905  -3.222  1.406
I  -6.167  3.063  -0.767
I  -4.091  -0.851  6.602
I  2.228  -0.045  5.396
I  1.294  -6.256  2.403
I  -0.968  7.234  -4.480
I  -3.113  0.292  -0.124
I  2.511  0.445  -1.032
I  -0.288  -2.582  -0.247
I  -0.357  3.255  -0.877
I  -0.378  0.132  -3.590
I  -0.104  0.940  2.596
Zn  -0.664  -0.082  0.072
