   40
step  555
Cs  -3.809  -2.783  -4.140
Cs  2.611  2.836  1.813
Cs  2.512  2.889  -3.517
Cs  -4.465  -3.598  3.062
Cs  2.532  -2.503  2.269
Cs  -3.123  3.108  -4.279
Cs  -3.708  3.051  2.738
Cs  1.975  -3.191  -3.229
Pb  5.703  5.980  -6.983
Pb  -0.548  -5.921  6.185
Pb  -6.600  0.615  6.011
Pb  5.915  -0.700  -0.549
Pb  -0.318  6.184  -0.615
Pb  -0.322  0.160  6.054
Pb  5.399  -6.684  -0.889
I  -3.802  -6.231  5.638
I  2.925  6.101  -5.644
I  5.444  -2.691  7.108
I  -6.726  3.774  -7.509
I  -5.723  -6.296  -3.358
I  5.238  6.999  2.683
I  -4.414  -6.466  1.267
I  3.002  6.060  -0.863
I  -0.046  -3.427  -7.439
I  -0.043  2.810  -6.309
I  5.814  0.851  -3.733
I  -5.772  -0.381  2.747
I  6.800  -3.826  -0.844
I  -7.184  3.306  -0.239
I  -3.453  -0.257  5.642
I  2.947  0.471  5.096
I  -0.453  -7.089  3.062
I  -0.324  7.314  -3.592
I  -3.350  0.033  -1.246
I  2.651  -0.372  -1.194
I  -1.136  -3.170  0.758
I  -0.751  3.336  -1.208
I  0.099  -0.163  -3.376
I  -0.238  0.465  2.685
Zn  -1.633  -0.687  0.690
