   40
step  673
Cs  -3.495  -3.126  -3.279
Cs  3.065  3.469  2.981
Cs  2.674  2.924  -3.752
Cs  -3.984  -2.834  2.851
Cs  3.270  -2.601  2.638
Cs  -3.349  2.698  -3.673
Cs  -3.360  3.054  2.047
Cs  1.488  -2.985  -4.407
Pb  6.100  5.622  -6.315
Pb  -0.487  -6.061  5.931
Pb  -6.840  0.434  5.793
Pb  5.243  -0.822  -0.532
Pb  0.382  6.507  -0.586
Pb  -1.106  -0.030  5.534
Pb  5.763  -6.310  0.216
I  -3.652  -5.505  5.322
I  3.240  5.311  -6.446
I  5.515  -3.645  7.044
I  -5.519  2.836  -7.262
I  -5.828  -7.000  -3.059
I  5.889  6.166  2.952
I  -3.612  -6.032  0.059
I  3.280  6.832  -1.921
I  -0.436  -3.066  -7.796
I  -1.314  3.590  -7.208
I  5.647  0.588  -3.705
I  -6.500  0.075  2.650
I  6.198  -3.607  -1.385
I  -7.195  3.554  0.099
I  -4.125  -0.858  6.143
I  1.935  0.685  6.131
I  1.128  -6.148  2.603
I  -1.238  6.340  -3.534
I  -3.210  0.459  -0.514
I  2.211  -0.781  -0.880
I  -1.442  -3.045  0.455
I  -0.454  3.484  -0.461
I  -1.002  -0.175  -3.605
I  0.107  0.668  2.587
Zn  -1.042  -0.536  0.282
