   40
step  317
Cs  -3.412  -3.314  -4.730
Cs  3.287  2.244  4.129
Cs  2.283  2.832  -3.309
Cs  -4.784  -2.872  2.672
Cs  2.207  -3.176  1.817
Cs  -2.644  3.991  -4.530
Cs  -3.536  3.578  2.340
Cs  3.198  -4.196  -3.712
Pb  6.397  5.402  -7.000
Pb  -0.523  -5.055  5.688
Pb  -6.412  1.314  7.309
Pb  5.177  0.402  -0.403
Pb  -0.184  5.937  0.137
Pb  -0.805  -0.162  5.855
Pb  5.276  -7.273  0.218
I  -3.235  -6.036  5.084
I  3.317  5.151  -6.528
I  5.631  -3.295  5.886
I  -5.438  2.757  -7.260
I  -6.045  -5.938  -3.547
I  5.446  7.044  1.525
I  -3.783  -6.871  0.072
I  2.756  6.322  -1.359
I  -0.911  -3.930  -8.969
I  0.388  2.056  -6.275
I  6.483  2.266  -2.767
I  -7.805  -0.762  2.528
I  6.692  -2.139  -1.932
I  -9.031  3.216  0.346
I  -3.606  0.216  4.778
I  3.312  -0.051  6.745
I  0.193  -7.630  3.805
I  -0.268  7.009  -4.492
I  -3.752  0.421  0.955
I  2.627  -0.455  -1.560
I  -1.002  -2.694  -0.321
I  -0.351  3.092  -0.492
I  -1.824  -0.209  -3.517
I  -0.075  0.840  2.985
Zn  -1.414  -0.675  1.182
