   40
step  957
Cs  -2.826  -3.625  -3.738
Cs  2.805  2.156  2.778
Cs  1.803  2.724  -3.373
Cs  -4.014  -2.844  3.680
Cs  3.347  -3.113  2.440
Cs  -4.694  3.266  -4.007
Cs  -3.349  3.569  2.364
Cs  2.983  -3.288  -3.299
Pb  5.629  5.614  -6.953
Pb  -0.694  -6.013  5.686
Pb  -6.916  0.362  5.966
Pb  6.054  0.139  -1.390
Pb  -0.643  6.490  -0.542
Pb  -0.969  0.030  5.991
Pb  6.022  -6.457  -0.552
I  -3.653  -5.912  5.467
I  2.835  4.358  -6.550
I  5.471  -3.057  6.201
I  -6.109  3.049  -7.812
I  -6.430  -4.866  -3.210
I  5.808  6.847  2.705
I  -3.441  -7.435  -1.190
I  3.132  6.294  -0.952
I  -0.190  -3.631  -5.984
I  -0.847  2.878  -6.664
I  4.266  0.340  -3.848
I  -6.528  -0.301  2.971
I  7.888  -2.840  -0.044
I  -7.288  3.288  -0.746
I  -3.746  0.102  7.506
I  2.407  -0.588  5.396
I  -0.898  -4.357  2.565
I  0.252  6.033  -3.667
I  -3.132  1.082  -1.074
I  3.053  -0.561  -0.559
I  -0.391  -2.682  -0.670
I  0.638  4.255  1.156
I  -0.171  -0.601  -3.912
I  -1.431  -0.103  2.717
Zn  -2.359  -1.269  0.206
