   40
step  867
Cs  -4.021  -3.293  -3.817
Cs  3.626  3.388  2.416
Cs  2.623  3.110  -2.516
Cs  -4.641  -3.360  3.356
Cs  1.958  -2.206  2.198
Cs  -3.644  2.453  -4.092
Cs  -3.086  2.777  2.164
Cs  2.407  -2.180  -3.582
Pb  5.978  5.933  -6.679
Pb  -0.312  -5.937  5.858
Pb  -6.832  0.036  6.156
Pb  5.658  -0.595  -0.280
Pb  0.539  6.252  -0.106
Pb  -0.367  0.148  5.880
Pb  5.661  -6.188  -0.439
I  -3.293  -6.014  5.917
I  3.041  4.883  -6.951
I  4.707  -3.309  6.142
I  -5.825  3.442  -7.591
I  -5.985  -6.462  -3.640
I  4.705  7.367  2.132
I  -4.503  -6.232  1.186
I  3.142  6.816  -1.898
I  -0.441  -2.871  -5.520
I  -1.538  3.420  -7.094
I  5.816  0.333  -3.505
I  -6.690  0.254  2.669
I  7.477  -3.354  -0.641
I  -6.571  3.538  -0.436
I  -3.701  -0.965  6.262
I  2.697  -0.007  5.002
I  0.084  -5.311  2.743
I  -0.331  5.285  -3.449
I  -3.395  0.434  -1.030
I  2.706  -0.386  -0.648
I  -1.345  -3.297  -1.559
I  0.581  3.249  0.403
I  0.053  0.970  -3.750
I  -1.999  -1.103  2.338
Zn  -2.420  -1.612  0.020
