   40
step  741
Cs  -3.509  -3.915  -3.798
Cs  2.655  3.488  2.729
Cs  2.723  2.181  -3.232
Cs  -4.412  -3.045  3.006
Cs  2.616  -2.865  2.994
Cs  -2.655  3.298  -2.260
Cs  -3.504  3.539  2.664
Cs  2.845  -3.812  -4.164
Pb  5.800  5.829  -6.738
Pb  -0.957  -6.536  4.950
Pb  -6.237  1.125  6.390
Pb  5.894  -0.275  -0.156
Pb  -0.659  6.057  -0.668
Pb  -0.389  0.179  6.346
Pb  4.750  -6.363  -0.269
I  -4.096  -6.027  5.034
I  2.638  5.520  -5.738
I  5.651  -3.198  6.189
I  -6.731  3.125  -7.777
I  -6.416  -6.495  -3.419
I  5.293  6.661  2.524
I  -4.053  -6.590  0.144
I  2.312  6.979  -1.634
I  -0.152  -3.314  -6.852
I  -0.296  2.760  -7.999
I  6.676  1.380  -3.341
I  -7.017  -0.042  2.582
I  6.671  -3.419  -0.902
I  -7.211  3.775  -0.078
I  -3.174  0.310  4.529
I  2.986  0.368  5.764
I  0.299  -5.208  2.632
I  -0.860  5.786  -4.123
I  -3.343  0.482  0.341
I  3.236  -0.849  -1.625
I  -2.065  -3.424  0.199
I  0.212  3.180  0.174
I  -0.428  0.136  -2.998
I  0.521  -0.107  2.084
Zn  -1.275  -1.219  0.690
