   40
step  492
Cs  -3.767  -2.596  -3.425
Cs  3.102  3.378  2.439
Cs  2.790  2.458  -3.384
Cs  -3.802  -2.491  2.859
Cs  1.965  -2.943  2.383
Cs  -3.216  2.948  -4.039
Cs  -3.570  3.196  2.687
Cs  1.622  -3.633  -3.190
Pb  5.741  5.438  -6.781
Pb  -0.726  -6.067  5.950
Pb  -7.001  0.173  5.436
Pb  5.757  -0.343  -0.919
Pb  -0.583  6.040  -0.940
Pb  -0.405  0.171  5.781
Pb  5.397  -6.402  -0.686
I  -3.463  -6.478  5.546
I  3.159  5.635  -4.765
I  6.695  -3.448  6.026
I  -6.233  3.057  -7.029
I  -5.760  -6.465  -3.114
I  5.354  6.760  2.939
I  -4.497  -5.855  0.883
I  2.643  6.786  -0.381
I  0.531  -3.442  -6.601
I  -0.024  3.074  -6.084
I  5.893  0.181  -3.955
I  -7.472  -0.167  2.411
I  6.528  -3.356  -0.732
I  -6.732  3.319  -0.044
I  -3.537  0.117  5.845
I  2.907  1.056  5.499
I  -0.276  -6.894  2.992
I  -1.500  6.657  -3.837
I  -3.215  0.534  -1.215
I  2.432  -0.720  -0.998
I  -1.072  -2.849  0.128
I  -0.106  3.145  -1.232
I  -0.437  -0.114  -3.686
I  0.429  0.807  2.300
Zn  -0.966  -0.107  0.280
